/*--------------------------------*- C++ -*----------------------------------*\
  =========                 |
  \\      /  F ield         | OpenFOAM: The Open Source CFD Toolbox
   \\    /   O peration     | Website:  https://openfoam.org
    \\  /    A nd           | Version:  7
     \\/     M anipulation  |
\*---------------------------------------------------------------------------*/
FoamFile
{
    version     2.0;
    format      ascii;
    class       volScalarField;
    location    "200";
    object      epsilon;
}
// * * * * * * * * * * * * * * * * * * * * * * * * * * * * * * * * * * * * * //

dimensions      [0 2 -3 0 0 0 0];

internalField   nonuniform List<scalar> 
12225
(
285.522
270.706
257.916
243.811
232.461
223.087
216.81
212.699
212.743
213.954
217.246
220.889
228.124
232.775
241.335
246.557
255.017
263.027
52.4924
91.883
106.974
114.749
124.844
136.783
152.694
169.903
191.123
210.932
235.257
255.488
281.114
299.346
324.877
339.347
364.811
373.766
20.5285
34.8724
44.6758
50.4687
55.3967
59.6065
64.6663
69.6409
76.3225
83.1825
91.4465
99.3214
108.19
116.951
125.577
135.324
142.642
153.875
16.0023
19.4862
24.0818
27.5633
30.4973
32.8687
35.1565
37.2924
39.5045
41.917
44.3399
47.2026
49.6866
53.0435
55.4227
59.2488
61.4533
65.677
15.0385
15.7123
17.3993
19.0782
20.6396
22.0256
23.2466
24.4308
25.4447
26.5946
27.5243
28.7586
29.6336
30.9873
31.8164
33.2697
34.0849
35.6564
14.7897
14.8256
15.2495
15.8675
16.5678
17.2869
17.9239
18.5841
19.1193
19.7341
20.1936
20.7993
21.209
21.8234
22.1994
22.8272
23.182
23.8622
14.7658
14.6146
14.6409
14.7257
14.9352
15.2199
15.4916
15.8089
16.071
16.3827
16.6182
16.9204
17.1311
17.4274
17.6164
17.9129
18.0827
18.4079
14.7687
14.5866
14.466
14.3801
14.3677
14.3896
14.4394
14.5334
14.6185
14.7367
14.8309
14.9565
15.0478
15.1764
15.2613
15.3921
15.4704
15.6204
14.768
14.591
14.4349
14.2963
14.185
14.1044
14.0399
14.0066
13.9814
13.9785
13.9809
13.9917
14.0041
14.0296
14.0472
14.0796
14.1034
14.146
14.7666
14.594
14.432
14.282
14.143
14.0219
13.9115
13.8193
13.737
13.6698
13.6102
13.5633
13.5181
13.4872
13.4516
13.4342
13.4023
13.401
14.7659
14.5945
14.4322
14.2803
14.1361
14.0032
13.8782
13.7644
13.6582
13.5629
13.4735
13.3952
13.3198
13.2561
13.1915
13.1408
13.0838
13.0452
14.7657
14.5943
14.4321
14.2798
14.1353
13.9998
13.8715
13.7518
13.6385
13.5336
13.4341
13.343
13.2557
13.1771
13.1002
13.0328
12.9647
12.9074
14.7657
14.5941
14.432
14.2794
14.1349
13.9989
13.8699
13.7485
13.6331
13.5249
13.4219
13.3257
13.2338
13.1483
13.0663
12.9906
12.9172
12.8502
14.7657
14.5939
14.4318
14.279
14.1346
13.9983
13.8691
13.7472
13.6315
13.5223
13.4184
13.3203
13.227
13.1389
13.055
12.9759
12.9002
12.8291
14.7657
14.5938
14.4317
14.2787
14.1342
13.9977
13.8686
13.7464
13.6307
13.5211
13.4171
13.3185
13.2248
13.136
13.0516
12.9715
12.8952
12.8228
14.7657
14.5937
14.4316
14.2785
14.1339
13.9973
13.8681
13.7458
13.63
13.5202
13.4161
13.3174
13.2236
13.1346
13.05
12.9697
12.8932
12.8205
14.7657
14.5937
14.4315
14.2783
14.1337
13.997
13.8677
13.7453
13.6294
13.5195
13.4154
13.3165
13.2227
13.1336
13.0489
12.9684
12.8919
12.819
14.7657
14.5937
14.4314
14.2782
14.1335
13.9968
13.8674
13.745
13.629
13.5191
13.4148
13.3159
13.222
13.1329
13.0481
12.9676
12.8909
12.818
14.7657
14.5937
14.4314
14.2782
14.1335
13.9967
13.8673
13.7448
13.6288
13.5189
13.4146
13.3157
13.2217
13.1325
13.0477
12.9671
12.8904
12.8175
14.7657
14.5937
14.4314
14.2782
14.1336
13.9968
13.8674
13.745
13.629
13.5191
13.4148
13.3159
13.222
13.1327
13.048
12.9674
12.8907
12.8177
14.7657
14.5937
14.4315
14.2784
14.1338
13.997
13.8677
13.7453
13.6294
13.5196
13.4155
13.3166
13.2229
13.1339
13.0494
12.969
12.8927
12.82
14.7657
14.5937
14.4316
14.2785
14.1341
13.9974
13.8685
13.7464
13.6312
13.522
13.419
13.3214
13.2293
13.1418
13.0595
12.981
12.9074
12.8369
14.7659
14.5937
14.4318
14.2788
14.1353
14.0002
13.8742
13.756
13.6463
13.5435
13.4485
13.3592
13.277
13.1992
13.1282
13.0602
12.9988
12.9387
14.7661
14.5928
14.4329
14.2844
14.1515
14.0321
13.9289
13.8375
13.7593
13.6894
13.6307
13.5769
13.5328
13.4905
13.4574
13.423
13.3989
13.3693
14.7641
14.5936
14.461
14.3603
14.3029
14.2767
14.2796
14.294
14.3202
14.3529
14.3959
14.4345
14.4824
14.5217
14.572
14.6089
14.6616
14.6938
14.757
14.6921
14.7579
14.9172
15.1828
15.4611
15.7475
16.012
16.2723
16.5038
16.736
16.9386
17.1507
17.3309
17.5309
17.6936
17.8887
18.0359
14.9575
15.4344
16.5693
17.6884
18.7053
19.5677
20.3372
20.9968
21.6194
22.166
22.7188
23.2107
23.7398
24.2042
24.7326
25.1825
25.7248
26.1658
16.2579
20.9389
25.015
27.7587
29.7844
31.3585
32.7766
34.0582
35.3591
36.6161
37.9752
39.2969
40.7612
42.1454
43.7174
45.1732
46.8832
48.3579
29.9428
47.225
54.8704
58.6734
61.6137
64.4319
67.5793
70.9786
74.7376
78.7135
82.9846
87.3435
91.9042
96.4491
101.099
105.621
110.174
114.575
165.79
160.073
154.899
149.564
144.479
139.678
135.613
132.11
129.27
126.973
125.319
124.044
123.339
122.829
122.825
122.982
123.268
123.826
0.457451
0.48569
0.863563
1.2221
1.60256
2.00774
2.4414
2.9008
3.37935
3.86744
4.35679
4.83937
5.30968
5.76228
6.19324
6.59765
6.97101
7.30725
7.60015
7.84194
8.02524
8.14279
8.18442
8.15618
8.03423
7.8889
7.76923
8.01829
8.32714
8.58463
8.86069
9.01354
8.78506
9.18853
39.6132
39.8407
40.353
44.7014
47.2568
50.9435
54.3659
58.1669
62.0435
66.1335
70.3757
74.8039
79.404
84.1917
89.1605
94.3246
99.6772
105.233
110.985
116.948
123.114
129.498
136.091
142.909
149.939
157.2
164.676
172.385
180.312
188.474
196.852
205.465
214.291
223.348
232.613
242.104
251.795
261.703
271.802
282.105
292.585
303.255
314.085
325.086
336.228
347.52
358.929
370.461
382.082
393.794
405.56
417.377
429.204
441.032
452.82
464.547
476.177
487.681
499.048
510.307
521.551
532.601
543.508
554.228
564.751
575.051
585.104
594.889
604.382
613.56
622.401
630.881
638.981
646.675
653.946
660.768
667.129
673.002
678.38
683.237
687.571
691.359
694.608
697.3
699.45
701.062
702.098
702.2
702.037
701.092
699.784
698.039
695.632
692.682
689.226
685.26
680.827
675.931
670.616
664.891
658.801
652.362
645.599
638.551
631.267
623.799
616.193
608.494
600.737
592.956
585.181
577.45
569.791
562.243
554.827
547.583
540.528
533.704
527.125
520.827
514.816
509.117
503.731
498.685
493.985
489.645
485.657
482.037
478.76
475.81
473.201
471.284
472.44
474.311
476.468
479.023
481.818
484.783
487.914
491.09
494.028
496.561
498.697
499.699
498.236
475.01
1.95292
1.16007
1.15959
1.31103
1.54111
1.82763
2.16108
2.53222
2.93126
3.3488
3.77691
4.20949
4.64222
5.07214
5.49722
5.91584
6.32645
6.72733
7.11632
7.49071
7.84701
8.19027
8.54989
8.94827
9.41308
9.98879
10.6785
11.4685
12.3482
13.4051
14.7889
16.6575
18.3978
21.58
24.6436
25.5836
27.0947
28.8546
30.4953
32.2867
34.1028
36.0044
37.962
39.9913
42.0873
44.2548
46.4939
48.8072
51.1951
53.6599
56.2021
58.8235
61.5244
64.3067
67.1702
70.1166
73.1454
76.2581
79.4539
82.734
86.0972
89.5445
93.0742
96.6872
100.381
104.156
108.01
111.943
115.952
120.036
124.192
128.418
132.711
137.07
141.489
145.967
150.498
155.08
159.707
164.376
169.079
173.813
178.571
183.346
188.129
192.916
197.695
202.459
207.2
211.909
216.583
221.22
225.834
230.45
235.129
239.767
244.344
248.85
253.279
257.622
261.87
266.014
270.046
273.957
277.738
281.38
284.875
288.213
291.388
294.389
297.211
299.844
302.283
304.521
306.551
308.369
309.971
311.353
312.511
313.438
314.12
314.535
314.739
314.692
314.465
314.033
313.349
312.431
311.297
309.953
308.409
306.671
304.752
302.658
300.404
297.999
295.455
292.787
290.013
287.153
284.223
281.24
278.219
275.175
272.121
269.071
266.041
263.043
260.092
257.199
254.379
251.644
249.006
246.477
244.064
241.777
239.623
237.609
235.743
234.03
232.473
231.077
229.842
228.767
227.871
227.264
227.409
227.778
228.296
228.961
229.738
230.584
231.477
232.397
233.236
233.918
234.487
235.076
235.243
234.301
3.87436
1.95647
1.73461
1.78473
1.94589
2.18047
2.47179
2.8086
3.18088
3.57949
3.99679
4.42708
4.86665
5.3136
5.76742
6.22866
6.69866
7.17952
7.67433
8.18784
8.72804
9.30245
9.90922
10.5588
11.2663
12.0394
12.8765
13.7794
14.7601
15.8493
17.0716
18.401
19.8009
21.334
22.7306
23.9669
25.3039
26.7003
28.1261
29.6119
31.1485
32.7408
34.3867
36.0882
37.8454
39.6597
41.5317
43.4624
45.4524
47.5027
49.6138
51.7864
54.0211
56.3185
58.6789
61.1027
63.5903
66.1417
68.7571
71.4364
74.1795
76.9861
79.8559
82.7884
85.7828
88.8384
91.9542
95.1293
98.3622
101.652
104.996
108.393
111.842
115.339
118.883
122.471
126.101
129.768
133.471
137.206
140.968
144.754
148.56
152.382
156.215
160.053
163.894
167.731
171.563
175.385
179.196
182.998
186.793
190.586
194.371
198.12
201.824
205.474
209.066
212.592
216.045
219.418
222.704
225.896
228.987
231.97
234.838
237.583
240.199
242.679
245.016
247.205
249.239
251.114
252.823
254.362
255.728
256.916
257.921
258.74
259.368
259.804
260.029
260.083
259.983
259.697
259.22
258.56
257.726
256.723
255.556
254.234
252.763
251.152
249.408
247.543
245.565
243.486
241.32
239.08
236.778
234.429
232.044
229.635
227.212
224.789
222.376
219.984
217.624
215.307
213.041
210.838
208.707
206.656
204.693
202.824
201.057
199.397
197.85
196.421
195.11
193.924
192.862
191.925
191.121
190.495
190.177
190.032
189.996
190.014
190.119
190.261
190.417
190.593
190.69
190.667
190.629
190.706
190.928
191.674
5.8884
2.80751
2.36409
2.3314
2.44987
2.6558
2.92484
3.24394
3.6035
3.99547
4.41313
4.85138
5.30688
5.77797
6.26452
6.7676
7.2892
7.83203
8.39925
8.99425
9.62031
10.2798
10.9738
11.7051
12.4764
13.2887
14.1431
15.0429
15.9953
17.009
18.0867
19.223
20.4275
21.6478
22.8697
24.1055
25.4006
26.7441
28.1268
29.554
31.0292
32.5545
34.1306
35.7584
37.4388
39.1727
40.9608
42.804
44.703
46.6587
48.6715
50.7421
52.871
55.0587
57.3058
59.6126
61.9795
64.4069
66.8947
69.4433
72.0524
74.7222
77.4523
80.2425
83.0922
86.0009
88.9679
91.9923
95.0731
98.2092
101.399
104.641
107.934
111.276
114.665
118.098
121.573
125.088
128.639
132.224
135.839
139.481
143.147
146.833
150.535
154.249
157.971
161.699
165.429
169.158
172.884
176.605
180.319
184.022
187.703
191.351
194.956
198.513
202.016
205.456
208.828
212.125
215.34
218.465
221.494
224.42
227.235
229.934
232.508
234.952
237.259
239.423
241.438
243.298
244.999
246.534
247.901
249.095
250.111
250.948
251.602
252.073
252.338
252.429
252.368
252.121
251.693
251.091
250.318
249.38
248.283
247.034
245.638
244.105
242.442
240.658
238.763
236.769
234.686
232.527
230.305
228.031
225.716
223.372
221.011
218.643
216.279
213.93
211.605
209.315
207.068
204.874
202.74
200.676
198.688
196.783
194.967
193.246
191.623
190.104
188.689
187.381
186.179
185.083
184.096
183.237
182.549
181.992
181.514
181.106
180.73
180.375
180.021
179.661
179.244
178.783
178.321
178.004
177.955
178.522
7.8334
3.65319
2.99099
2.88135
2.95901
3.14014
3.39155
3.69719
4.04696
4.43322
4.84988
5.29222
5.75696
6.24223
6.74748
7.27328
7.82101
8.39263
8.99031
9.61615
10.2718
10.9585
11.6766
12.4268
13.2098
14.0274
14.8819
15.7757
16.7122
17.6943
18.7223
19.7934
20.9171
22.0842
23.288
24.5334
25.8208
27.1513
28.5274
29.9518
31.4248
32.9475
34.521
36.1462
37.8242
39.556
41.3425
43.1847
45.0837
47.0404
49.0558
51.1302
53.2643
55.4588
57.7145
60.0319
62.4116
64.8541
67.3599
69.9293
72.5626
75.2599
78.0212
80.8465
83.7355
86.6879
89.7033
92.781
95.9202
99.1199
102.379
105.696
109.07
112.498
115.979
119.511
123.091
126.718
130.387
134.096
137.843
141.623
145.433
149.27
153.13
157.009
160.903
164.809
168.723
172.64
176.556
180.467
184.367
188.249
192.105
195.927
199.708
203.44
207.117
210.732
214.277
217.745
221.129
224.421
227.614
230.701
233.673
236.525
239.248
241.836
244.282
246.579
248.721
250.701
252.515
254.157
255.622
256.907
258.006
258.918
259.639
260.171
260.493
260.618
260.583
260.352
259.935
259.334
258.554
257.601
256.48
255.197
253.759
252.174
250.451
248.598
246.627
244.547
242.371
240.11
237.776
235.382
232.939
230.46
227.954
225.435
222.913
220.398
217.9
215.429
212.995
210.607
208.272
205.999
203.794
201.665
199.617
197.655
195.782
194.003
192.319
190.73
189.237
187.838
186.534
185.33
184.242
183.254
182.336
181.479
180.656
179.852
179.049
178.239
177.4
176.548
175.723
175.053
174.625
174.726
9.65026
4.45929
3.58748
3.4037
3.44163
3.59867
3.83288
4.12485
4.4634
4.84087
5.25143
5.69062
6.15518
6.64303
7.15316
7.68553
8.24084
8.82033
9.4255
10.0579
10.7189
11.4097
12.1311
12.884
13.6697
14.4899
15.3469
16.2428
17.1801
18.1605
19.1852
20.2545
21.3699
22.5302
23.7346
24.9841
26.2795
27.6216
29.0117
30.4511
31.9409
33.4824
35.0768
36.7252
38.4288
40.1888
42.0064
43.8828
45.8189
47.8157
49.8743
51.9961
54.1823
56.4339
58.7519
61.1374
63.5911
66.114
68.7069
71.3703
74.1049
76.9111
79.7893
82.7397
85.7623
88.857
92.0236
95.2617
98.5706
101.949
105.397
108.913
112.494
116.14
119.849
123.618
127.445
131.327
135.261
139.244
143.273
147.344
151.453
155.596
159.77
163.969
168.189
172.426
176.674
180.928
185.183
189.432
193.668
197.883
202.07
206.222
210.331
214.389
218.389
222.322
226.181
229.958
233.645
237.233
240.716
244.083
247.328
250.443
253.419
256.25
258.926
261.443
263.791
265.966
267.96
269.768
271.385
272.805
274.026
275.043
275.855
276.461
276.845
277.008
276.991
276.765
276.336
275.707
274.884
273.871
272.674
271.3
269.755
268.049
266.188
264.185
262.048
259.79
257.422
254.957
252.406
249.783
247.1
244.369
241.603
238.814
236.012
233.209
230.416
227.643
224.899
222.193
219.535
216.931
214.389
211.915
209.515
207.194
204.957
202.804
200.74
198.765
196.878
195.077
193.363
191.736
190.2
188.747
187.361
186.028
184.734
183.464
182.205
180.949
179.689
178.443
177.248
176.214
175.389
174.933
11.2933
5.2009
4.13296
3.87757
3.87653
4.00878
4.2248
4.50157
4.82654
5.19172
5.59139
6.0213
6.4783
6.96026
7.46599
7.9951
8.54791
9.12527
9.72835
10.3585
11.0172
11.7058
12.4256
13.178
13.9646
14.787
15.6471
16.547
17.4885
18.473
19.5016
20.5753
21.6948
22.8606
24.0732
25.3336
26.6428
28.0019
29.412
30.8744
32.3903
33.9612
35.5886
37.2737
39.0181
40.8233
42.6907
44.6218
46.618
48.6809
50.8118
53.0125
55.2844
57.629
60.0477
62.5418
65.1127
67.7617
70.4898
73.2981
76.1875
79.159
82.213
85.3502
88.5709
91.8753
95.2632
98.7345
102.289
105.925
109.643
113.44
117.316
121.268
125.295
129.394
133.562
137.797
142.095
146.453
150.866
155.331
159.843
164.397
168.99
173.614
178.266
182.938
187.626
192.321
197.019
201.71
206.388
211.043
215.668
220.255
224.794
229.279
233.699
238.047
242.313
246.489
250.565
254.533
258.384
262.108
265.698
269.143
272.437
275.569
278.532
281.319
283.921
286.331
288.542
290.549
292.345
293.926
295.286
296.422
297.333
298.015
298.459
298.656
298.649
298.412
297.951
297.27
296.373
295.267
293.956
292.448
290.75
288.87
286.819
284.605
282.241
279.739
277.11
274.369
271.526
268.597
265.594
262.531
259.421
256.276
253.108
249.93
246.752
243.586
240.44
237.326
234.25
231.223
228.25
225.338
222.494
219.722
217.027
214.412
211.879
209.43
207.065
204.783
202.583
200.464
198.427
196.466
194.573
192.738
190.948
189.195
187.467
185.761
184.076
182.43
180.858
179.449
178.22
177.242
12.73
5.86002
4.61328
4.28616
4.24925
4.35637
4.55313
4.81319
5.12262
5.47295
5.85847
6.27511
6.71991
7.19089
7.68683
8.20729
8.75243
9.32293
9.91982
10.5444
11.1981
11.8823
12.5986
13.3487
14.134
14.9565
15.8178
16.7197
17.6637
18.6514
19.6839
20.7625
21.888
23.0617
24.2845
25.5577
26.8828
28.2611
29.694
31.1832
32.7301
34.3364
36.0038
37.7341
39.5291
41.3905
43.3203
45.3204
47.3926
49.5389
51.7614
54.0619
56.4424
58.9049
61.4512
64.0833
66.8029
69.6116
72.5111
75.5029
78.5884
81.7686
85.0448
88.4176
91.8879
95.4559
99.1218
102.886
106.747
110.705
114.759
118.908
123.149
127.481
131.902
136.409
140.999
145.668
150.412
155.228
160.111
165.056
170.058
175.111
180.209
185.346
190.516
195.71
200.923
206.146
211.371
216.59
221.792
226.97
232.113
237.214
242.261
247.246
252.159
256.99
261.729
266.366
270.891
275.295
279.567
283.698
287.677
291.496
295.144
298.613
301.894
304.978
307.857
310.522
312.968
315.186
317.171
318.917
320.418
321.673
322.676
323.427
323.917
324.136
324.121
323.853
323.336
322.574
321.574
320.34
318.88
317.198
315.305
313.209
310.919
308.447
305.804
303.003
300.058
296.981
293.787
290.49
287.104
283.643
280.122
276.553
272.949
269.324
265.689
262.056
258.434
254.835
251.266
247.738
244.256
240.829
237.463
234.163
230.933
227.779
224.703
221.708
218.793
215.961
213.209
210.539
207.949
205.438
203
200.628
198.316
196.057
193.844
191.676
189.555
187.5
185.541
183.748
182.113
180.654
13.9404
6.42438
5.01913
4.62487
4.55318
4.63513
4.81193
5.05432
5.34701
5.68106
6.0507
6.45198
6.88218
7.33949
7.8228
8.33168
8.86629
9.42728
10.0157
10.6327
11.2799
11.958
12.6689
13.4144
14.1961
15.016
15.8757
16.7768
17.7211
18.7101
19.7452
20.8278
21.9594
23.1413
24.3749
25.6613
27.0032
28.4023
29.8603
31.3792
32.9609
34.6075
36.321
38.1036
39.9576
41.8852
43.8887
45.9705
48.1332
50.3791
52.7107
55.1306
57.6413
60.2452
62.9448
65.7425
68.6405
71.6413
74.7467
77.9588
81.2795
84.7103
88.2527
91.9078
95.6766
99.5597
103.558
107.67
111.897
116.238
120.691
125.256
129.93
134.711
139.597
144.583
149.668
154.846
160.112
165.463
170.892
176.395
181.963
187.591
193.272
198.998
204.761
210.553
216.365
222.187
228.011
233.825
239.621
245.387
251.112
256.787
262.4
267.941
273.398
278.761
284.018
289.159
294.172
299.046
303.771
308.335
312.728
316.939
320.96
324.779
328.386
331.774
334.933
337.854
340.53
342.954
345.118
347.018
348.647
350.002
351.079
351.877
352.387
352.606
352.555
352.225
351.621
350.746
349.607
348.209
346.56
344.665
342.536
340.179
337.607
334.83
331.861
328.714
325.402
321.94
318.343
314.625
310.801
306.887
302.897
298.846
294.748
290.616
286.463
282.301
278.14
273.992
269.866
265.771
261.716
257.708
253.755
249.861
246.033
242.276
238.593
234.989
231.465
228.024
224.666
221.392
218.204
215.101
212.082
209.143
206.283
203.495
200.779
198.134
195.566
193.091
190.734
188.551
186.512
184.608
14.9157
6.88832
5.34763
4.89257
4.78769
4.84495
5.00166
5.22601
5.50155
5.81883
6.17199
6.55719
6.97187
7.41446
7.88403
8.37964
8.90178
9.45129
10.0293
10.6371
11.2765
11.9478
12.6527
13.3928
14.1699
14.9858
15.8422
16.741
17.6839
18.6727
19.7092
20.7949
21.9318
23.1215
24.3659
25.667
27.0285
28.4509
29.937
31.4897
33.1113
34.8045
36.5718
38.4157
40.3391
42.3447
44.4354
46.6142
48.8842
51.2484
53.7099
56.2719
58.9374
61.7096
64.5916
67.5863
70.6966
73.9254
77.2753
80.7487
84.348
88.0751
91.932
95.92
100.04
104.294
108.681
113.202
117.857
122.644
127.562
132.61
137.786
143.085
148.507
154.045
159.697
165.456
171.319
177.278
183.327
189.459
195.666
201.941
208.275
214.658
221.082
227.535
234.009
240.492
246.973
253.441
259.883
266.287
272.643
278.936
285.156
291.289
297.324
303.249
309.05
314.715
320.233
325.591
330.777
335.78
340.588
345.191
349.577
353.737
357.659
361.335
364.755
367.911
370.794
373.396
375.712
377.734
379.459
380.88
381.996
382.804
383.297
383.476
383.352
382.92
382.186
381.156
379.836
378.231
376.349
374.198
371.788
369.127
366.228
363.102
359.762
356.223
352.499
348.605
344.557
340.371
336.062
331.646
327.14
322.557
317.914
313.224
308.501
303.757
299.005
294.255
289.518
284.804
280.122
275.479
270.884
266.343
261.863
257.45
253.109
248.844
244.662
240.564
236.553
232.634
228.809
225.079
221.448
217.915
214.481
211.146
207.91
204.775
201.748
198.844
196.081
193.504
191.065
188.746
15.6574
7.25148
5.60024
5.09206
4.95641
4.99012
5.12717
5.33368
5.59223
5.89294
6.22983
6.59905
6.99803
7.42568
7.88189
8.36588
8.87745
9.41707
9.98559
10.5841
11.2136
11.8751
12.5708
13.3025
14.0723
14.8819
15.7334
16.6288
17.57
18.5592
19.5984
20.6898
21.8355
23.0377
24.2987
25.62
27.0041
28.4539
29.9739
31.5677
33.2381
34.9883
36.8213
38.7404
40.7487
42.8498
45.0471
47.3444
49.7453
52.2536
54.873
57.6075
60.4608
63.4367
66.539
69.7712
73.1369
76.6394
80.2821
84.0677
87.9991
92.0786
96.3083
100.69
105.225
109.914
114.758
119.756
124.908
130.213
135.67
141.275
147.026
152.92
158.952
165.118
171.412
177.828
184.359
190.999
197.739
204.57
211.485
218.471
225.521
232.622
239.764
246.935
254.122
261.314
268.497
275.658
282.784
289.861
296.874
303.811
310.657
317.399
324.023
330.516
336.862
343.05
349.066
354.897
360.529
365.952
371.152
376.118
380.84
385.305
389.505
393.428
397.067
400.412
403.454
406.187
408.604
410.698
412.465
413.901
415.001
415.765
416.188
416.273
416.024
415.436
414.52
413.283
411.73
409.868
407.705
405.249
402.51
399.499
396.226
392.705
388.95
384.974
380.795
376.426
371.885
367.188
362.351
357.391
352.325
347.169
341.938
336.648
331.312
325.945
320.558
315.164
309.774
304.398
299.045
293.724
288.445
283.215
278.041
272.931
267.891
262.927
258.047
253.255
248.557
243.958
239.465
235.081
230.812
226.663
222.637
218.738
214.967
211.331
207.836
204.494
201.321
198.35
195.521
192.815
16.1772
7.51813
5.78173
5.22906
5.06577
5.07772
5.19607
5.38547
5.62771
5.91243
6.2341
6.58991
6.97621
7.39136
7.83412
8.30344
8.80061
9.32649
9.88201
10.4683
11.0867
11.7389
12.4267
13.1518
13.9162
14.7219
15.5711
16.4661
17.4092
18.4029
19.4497
20.5521
21.7126
22.9342
24.2201
25.5722
26.9929
28.4844
30.052
31.701
33.4357
35.2607
37.1799
39.1969
41.3154
43.5398
45.8741
48.3228
50.8904
53.5815
56.4006
59.3521
62.4408
65.671
69.0472
72.5736
76.2544
80.0934
84.0942
88.2602
92.5945
97.0996
101.778
106.631
111.66
116.865
122.248
127.807
133.541
139.449
145.528
151.775
158.186
164.757
171.482
178.355
185.37
192.519
199.793
207.185
214.683
222.278
229.96
237.715
245.533
253.401
261.305
269.232
277.167
285.097
293.007
300.881
308.704
316.462
324.137
331.716
339.182
346.521
353.716
360.754
367.619
374.298
380.774
387.036
393.069
398.861
404.399
409.672
414.668
419.376
423.786
427.889
431.675
435.137
438.266
441.055
443.498
445.589
447.324
448.699
449.711
450.36
450.643
450.564
450.12
449.307
448.146
446.64
444.795
442.618
440.117
437.302
434.182
430.77
427.075
423.113
418.897
414.442
409.765
404.881
399.807
394.561
389.159
383.619
377.958
372.193
366.34
360.415
354.434
348.41
342.356
336.286
330.21
324.139
318.085
312.056
306.062
300.112
294.214
288.377
282.609
276.919
271.313
265.802
260.391
255.09
249.906
244.848
239.925
235.144
230.512
226.037
221.724
217.579
213.61
209.828
206.243
202.882
199.676
196.61
16.4973
7.69866
5.89996
5.3115
5.12393
5.11699
5.21768
5.39128
5.61993
5.89195
6.20061
6.54113
6.91155
7.3111
7.73928
8.19639
8.68253
9.1983
9.74465
10.3228
10.9343
11.5808
12.2642
12.9866
13.7502
14.5573
15.4104
16.312
17.2651
18.2726
19.3383
20.4641
21.6529
22.9079
24.2318
25.6258
27.0966
28.6498
30.2908
32.0243
33.8552
35.7883
37.8296
39.9833
42.2543
44.6474
47.1678
49.821
52.6121
55.5466
58.6297
61.8668
65.263
68.8235
72.5533
76.4572
80.5395
84.8047
89.2565
93.8983
98.7333
103.764
108.992
114.419
120.046
125.872
131.898
138.121
144.541
151.153
157.954
164.94
172.106
179.445
186.951
194.616
202.431
210.386
218.473
226.68
234.995
243.406
251.901
260.465
269.085
277.746
286.432
295.129
303.819
312.488
321.117
329.692
338.193
346.606
354.911
363.093
371.135
379.019
386.731
394.253
401.571
408.668
415.531
422.144
428.493
434.567
440.352
445.837
451.011
455.863
460.384
464.564
468.396
471.872
474.984
477.727
480.095
482.083
483.687
484.905
485.735
486.176
486.229
485.904
485.172
484.061
482.579
480.731
478.524
475.966
473.064
469.83
466.274
462.407
458.242
453.791
449.069
444.093
438.878
433.442
427.801
421.972
415.974
409.824
403.54
397.139
390.638
384.054
377.403
370.699
363.956
357.187
350.404
343.619
336.843
330.086
323.358
316.669
310.03
303.449
296.937
290.502
284.157
277.91
271.773
265.756
259.871
254.13
248.543
243.123
237.88
232.824
227.965
223.309
218.867
214.647
210.656
206.913
203.345
199.95
16.6101
7.79269
5.95954
5.34613
5.1384
5.11638
5.20417
5.36514
5.57915
5.83588
6.12983
6.45764
6.81705
7.20667
7.62598
8.07503
8.55426
9.06447
9.60673
10.1824
10.7932
11.441
12.1281
12.857
13.631
14.4518
15.3222
16.2454
17.2246
18.2628
19.3622
20.5257
21.7591
23.0671
24.4549
25.9275
27.4901
29.1486
30.9086
32.7759
34.7564
36.8565
39.0822
41.4393
43.9337
46.5718
49.3599
52.3045
55.4115
58.6872
62.1374
65.7679
69.5846
73.5928
77.7978
82.2045
86.8174
91.6406
96.6777
101.932
107.405
113.099
119.016
125.154
131.515
138.097
144.897
151.913
159.141
166.577
174.214
182.048
190.069
198.271
206.645
215.18
223.865
232.69
241.643
250.709
259.876
269.129
278.454
287.834
297.254
306.697
316.145
325.582
334.99
344.351
353.646
362.858
371.968
380.958
389.809
398.504
407.024
415.352
423.472
431.365
439.018
446.413
453.535
460.37
466.905
473.126
479.022
484.582
489.795
494.652
499.144
503.263
507.002
510.356
513.317
515.881
518.044
519.802
521.153
522.094
522.624
522.748
522.475
521.777
520.669
519.168
517.279
515.008
512.363
509.351
505.981
502.266
498.214
493.839
489.151
484.165
478.896
473.36
467.573
461.552
455.314
448.876
442.257
435.475
428.548
421.493
414.328
407.07
399.735
392.338
384.894
377.416
369.917
362.408
354.902
347.408
339.94
332.506
325.119
317.789
310.527
303.345
296.256
289.272
282.407
275.673
269.086
262.661
256.412
250.355
244.503
238.872
233.472
228.314
223.406
218.757
214.371
210.263
206.355
202.664
16.5788
7.80942
5.96779
5.34206
5.12233
5.0885
5.16186
5.30906
5.51167
5.75915
6.04525
6.36632
6.7202
7.10576
7.52263
7.97103
8.45175
8.96621
9.51538
10.1007
10.7242
11.3882
12.0952
12.8478
13.6478
14.4976
15.4022
16.366
17.3934
18.4889
19.658
20.9049
22.2351
23.6542
25.1685
26.7844
28.5084
30.3472
32.3077
34.3968
36.6217
38.9899
41.5081
44.1838
47.0246
50.0382
53.2326
56.6154
60.193
63.9717
67.9574
72.1561
76.5731
81.2136
86.0824
91.1835
96.5207
102.097
107.914
113.974
120.278
126.825
133.614
140.644
147.912
155.415
163.147
171.105
179.28
187.668
196.258
205.043
214.014
223.158
232.465
241.923
251.519
261.239
271.069
280.993
290.998
301.065
311.178
321.321
331.475
341.623
351.745
361.823
371.839
381.773
391.606
401.32
410.894
420.309
429.548
438.591
447.419
456.017
464.365
472.449
480.251
487.756
494.95
501.818
508.347
514.526
520.343
525.789
530.854
535.53
539.811
543.689
547.159
550.218
552.86
555.082
556.882
558.257
559.208
559.73
559.824
559.517
558.764
557.587
555.999
554.008
551.618
548.836
545.671
542.13
538.224
533.963
529.359
524.423
519.167
513.604
507.751
501.622
495.233
488.603
481.747
474.683
467.429
460.003
452.422
444.706
436.871
428.935
420.914
412.824
404.679
396.493
388.279
380.05
371.817
363.592
355.387
347.215
339.086
331.014
323.01
315.089
307.265
299.553
291.968
284.528
277.25
270.154
263.256
256.576
250.13
243.939
238.014
232.369
227.013
221.955
217.195
212.747
208.52
204.568
16.466
7.79043
5.94792
5.31157
5.07862
5.03408
5.10027
5.24207
5.44076
5.68613
5.9725
6.29641
6.65557
7.04911
7.47696
7.93957
8.43771
8.97215
9.54305
10.154
10.8082
11.5089
12.2597
13.0644
13.9279
14.8542
15.8481
16.9151
18.061
19.292
20.6147
22.0358
23.5623
25.2017
26.9617
28.8505
30.8766
33.0482
35.3738
37.8618
40.5203
43.3569
46.3793
49.597
53.0194
56.6558
60.517
64.6124
68.9461
73.5226
78.3462
83.421
88.7507
94.3383
100.186
106.296
112.669
119.304
126.201
133.358
140.773
148.44
156.358
164.518
172.917
181.546
190.398
199.464
208.734
218.199
227.847
237.668
247.648
257.774
268.034
278.412
288.894
299.465
310.108
320.808
331.548
342.309
353.076
363.829
374.55
385.22
395.822
406.335
416.74
427.019
437.152
447.121
456.905
466.487
475.848
484.969
493.834
502.425
510.725
518.719
526.392
533.73
540.718
547.344
553.595
559.462
564.935
570.006
574.667
578.911
582.735
586.134
589.104
591.642
593.748
595.418
596.656
597.451
597.822
597.746
597.258
596.308
594.942
593.157
590.959
588.354
585.35
581.954
578.174
574.017
569.493
564.614
559.391
553.834
547.956
541.769
535.289
528.531
521.51
514.243
506.746
499.036
491.13
483.047
474.803
466.417
457.907
449.289
440.58
431.796
422.952
414.061
405.137
396.192
387.239
378.289
369.356
360.453
351.592
342.788
334.053
325.406
316.86
308.434
300.147
292.017
284.066
276.319
268.794
261.512
254.497
247.77
241.334
235.215
229.424
223.974
218.862
214.1
209.609
205.459
16.2016
7.71784
5.89114
5.25536
5.02368
4.9818
5.05286
5.20221
5.41102
5.66936
5.97144
6.31163
6.69019
7.10739
7.56399
8.06135
8.60144
9.18705
9.82127
10.5074
11.2494
12.0523
12.9214
13.8625
14.8823
15.9873
17.1847
18.4823
19.8883
21.4116
23.0612
24.8469
26.7785
28.8662
31.1203
33.5514
36.1699
38.9861
42.01
45.2513
48.7188
52.4213
56.367
60.5646
65.0221
69.7478
74.7488
80.0363
85.609
91.4661
97.6069
104.03
110.735
117.718
124.976
132.506
140.301
148.358
156.669
165.227
174.024
183.052
192.302
201.763
211.426
221.28
231.314
241.516
251.874
262.375
273.007
283.756
294.61
305.552
316.571
327.649
338.773
349.928
361.096
372.263
383.412
394.526
405.589
416.582
427.489
438.293
448.974
459.517
469.902
480.111
490.128
499.934
509.511
518.842
527.91
536.699
545.192
553.374
561.23
568.746
575.909
582.707
589.126
595.156
600.785
606.008
610.816
615.202
619.16
622.687
625.781
628.439
630.658
632.442
633.79
634.694
635.181
635.197
634.831
633.981
632.718
631.035
628.938
626.431
623.522
620.216
616.521
612.443
607.99
603.17
597.989
592.461
586.595
580.402
573.891
567.077
559.973
552.592
544.951
537.064
528.946
520.614
512.084
503.373
494.498
485.477
476.327
467.065
457.706
448.268
438.763
429.208
419.614
409.995
400.362
390.728
381.107
371.514
361.962
352.466
343.042
333.71
324.485
315.388
306.44
297.664
289.082
280.71
272.582
264.725
257.167
249.934
243.066
236.556
230.414
224.651
219.264
214.27
209.552
205.252
15.8999
7.60361
5.81644
5.20193
4.98823
4.96471
5.05535
5.22366
5.45489
5.74066
6.07658
6.4611
6.89368
7.37543
7.90854
8.49615
9.14228
9.85188
10.6305
11.4841
12.4197
13.4452
14.5695
15.802
17.1529
18.6332
20.2542
22.0282
23.9678
26.0862
28.3964
30.9116
33.6453
36.6104
39.8197
43.2848
47.0167
51.0259
55.3218
59.9116
64.8013
69.996
75.5008
81.3184
87.4504
93.8995
100.666
107.752
115.141
122.823
130.788
139.026
147.527
156.278
165.27
174.49
183.928
193.571
203.408
213.425
223.613
233.957
244.448
255.071
265.816
276.671
287.623
298.661
309.773
320.946
332.169
343.43
354.716
366.014
377.313
388.599
399.86
411.082
422.251
433.355
444.379
455.309
466.13
476.827
487.386
497.791
508.028
518.081
527.933
537.57
546.975
556.133
565.029
573.647
581.973
589.991
597.688
605.05
612.065
618.721
625.008
630.915
636.429
641.543
646.247
650.537
654.408
657.855
660.87
663.453