/*--------------------------------*- C++ -*----------------------------------*\
  =========                 |
  \\      /  F ield         | OpenFOAM: The Open Source CFD Toolbox
   \\    /   O peration     | Website:  https://openfoam.org
    \\  /    A nd           | Version:  7
     \\/     M anipulation  |
\*---------------------------------------------------------------------------*/
FoamFile
{
    version     2.0;
    format      ascii;
    class       volScalarField;
    location    "200";
    object      k;
}
// * * * * * * * * * * * * * * * * * * * * * * * * * * * * * * * * * * * * * //

dimensions      [0 2 -2 0 0 0 0];

internalField   nonuniform List<scalar> 
12225
(
0.362813
0.343993
0.327744
0.30982
0.295398
0.283485
0.27551
0.270285
0.27034
0.271886
0.276062
0.280697
0.289908
0.295664
0.306922
0.312633
0.325449
0.327258
0.440186
0.468698
0.461605
0.44837
0.450349
0.458314
0.474539
0.498561
0.524395
0.55215
0.580761
0.606216
0.633889
0.653946
0.679939
0.693124
0.718655
0.724781
0.390541
0.417873
0.420231
0.416826
0.411628
0.407804
0.408018
0.410037
0.414557
0.421403
0.430734
0.439727
0.451205
0.461179
0.472908
0.483607
0.493691
0.50613
0.377546
0.386982
0.391406
0.391341
0.390222
0.387896
0.385662
0.384081
0.382882
0.382897
0.383358
0.384384
0.386286
0.388471
0.390931
0.394271
0.396592
0.401054
0.374561
0.37609
0.378411
0.378665
0.378263
0.377205
0.375488
0.373738
0.37201
0.370455
0.369256
0.36811
0.367382
0.366808
0.366447
0.366347
0.366371
0.366729
0.373814
0.37271
0.372645
0.372383
0.37176
0.370817
0.369553
0.368082
0.366571
0.364976
0.363528
0.362063
0.360755
0.359529
0.358397
0.35743
0.356444
0.355792
0.373782
0.371742
0.370386
0.369287
0.368233
0.367114
0.365915
0.364587
0.363238
0.361808
0.360422
0.359023
0.357677
0.356382
0.35512
0.353966
0.352794
0.351805
0.37382
0.37156
0.369634
0.367977
0.3665
0.365107
0.363775
0.362429
0.361107
0.359766
0.35845
0.357143
0.355863
0.354622
0.3534
0.352249
0.351098
0.350052
0.373832
0.371553
0.369449
0.367525
0.365776
0.364153
0.362645
0.361199
0.359817
0.358473
0.357169
0.355902
0.354667
0.353474
0.352307
0.351195
0.350096
0.349072
0.373831
0.37156
0.369418
0.367405
0.365529
0.363772
0.362133
0.360585
0.359122
0.357728
0.356394
0.355117
0.353888
0.35271
0.351569
0.350481
0.349419
0.34842
0.373829
0.37156
0.369413
0.367378
0.365458
0.363645
0.361937
0.360324
0.358798
0.357353
0.355979
0.354672
0.353424
0.352235
0.351094
0.350008
0.348958
0.347968
0.373828
0.371558
0.369409
0.36737
0.365439
0.363609
0.361875
0.360233
0.358677
0.357201
0.3558
0.354468
0.3532
0.351994
0.350842
0.349747
0.348695
0.3477
0.373827
0.371556
0.369405
0.367365
0.36543
0.363593
0.361851
0.360197
0.358626
0.357134
0.355715
0.354367
0.353084
0.351864
0.3507
0.349594
0.348535
0.347531
0.373827
0.371555
0.369401
0.367359
0.365422
0.363583
0.361837
0.360178
0.3586
0.357101
0.355674
0.354317
0.353024
0.351794
0.350622
0.349506
0.34844
0.347427
0.373826
0.371553
0.369398
0.367355
0.365416
0.363575
0.361826
0.360164
0.358584
0.357081
0.355651
0.354289
0.352993
0.351758
0.35058
0.349459
0.348388
0.347369
0.373826
0.371552
0.369396
0.367351
0.36541
0.363567
0.361817
0.360153
0.358572
0.357067
0.355634
0.354271
0.352972
0.351734
0.350554
0.34943
0.348357
0.347334
0.373825
0.371551
0.369394
0.367348
0.365406
0.363562
0.36181
0.360145
0.358562
0.357055
0.355621
0.354256
0.352955
0.351716
0.350535
0.349408
0.348334
0.347309
0.373825
0.371551
0.369393
0.367346
0.365403
0.363558
0.361805
0.360139
0.358555
0.357047
0.355612
0.354246
0.352944
0.351703
0.350521
0.349393
0.348317
0.347291
0.373825
0.37155
0.369393
0.367346
0.365402
0.363557
0.361804
0.360137
0.358552
0.357044
0.355608
0.354241
0.352938
0.351697
0.350514
0.349385
0.348308
0.347281
0.373825
0.371551
0.369393
0.367347
0.365404
0.363559
0.361806
0.36014
0.358555
0.357047
0.355611
0.354244
0.352942
0.351701
0.350517
0.349389
0.348313
0.347285
0.373825
0.371551
0.369395
0.367349
0.365407
0.363563
0.361811
0.360146
0.358562
0.357055
0.355621
0.354256
0.352955
0.351716
0.350534
0.349408
0.348334
0.347308
0.373826
0.371552
0.369397
0.367352
0.365412
0.363571
0.361822
0.360161
0.358583
0.357083
0.355657
0.354299
0.353007
0.351775
0.350603
0.349484
0.348418
0.347399
0.373826
0.371554
0.369399
0.367359
0.365429
0.363603
0.361875
0.36024
0.358691
0.35722
0.355823
0.354494
0.353227
0.352019
0.350866
0.349763
0.348711
0.347701
0.373828
0.371551
0.369412
0.367417
0.365556
0.363819
0.362189
0.360651
0.359189
0.357794
0.356456
0.355172
0.353936
0.352746
0.351601
0.350496
0.349437
0.348411
0.373823
0.371554
0.369604
0.367893
0.366339
0.364892
0.363495
0.362122
0.360761
0.359414
0.358081
0.35677
0.355489
0.354238
0.353029
0.351856
0.350735
0.349646
0.373788
0.371991
0.371113
0.370266
0.36936
0.368311
0.367048
0.36563
0.364121
0.362575
0.36103
0.359522
0.358073
0.356682
0.355382
0.354142
0.35301
0.351924
0.374355
0.375572
0.377775
0.377858
0.377288
0.375886
0.373835
0.371641
0.369505
0.367482
0.365664
0.364084
0.36271
0.361535
0.36061
0.359818
0.359289
0.3588
0.379125
0.394296
0.398249
0.396573
0.392538
0.387603
0.383646
0.380448
0.378268
0.376852
0.376496
0.37674
0.377414
0.378689
0.38044
0.38242
0.384824
0.387135
0.408394
0.42754
0.422416
0.411055
0.402226
0.397923
0.398625
0.400962
0.406068
0.413052
0.420996
0.429824
0.438831
0.448185
0.457301
0.466544
0.475313
0.484172
0.36605
0.353416
0.341988
0.33021
0.318982
0.308381
0.299411
0.29167
0.285404
0.280333
0.276682
0.273866
0.272311
0.271173
0.27121
0.271471
0.272188
0.273388
0.0015644
0.00759712
0.0135204
0.019127
0.0250682
0.0314029
0.0381886
0.0453915
0.0528997
0.0605664
0.0682456
0.0758104
0.0831549
0.0901911
0.0968419
0.103038
0.108718
0.11383
0.118345
0.122266
0.125643
0.128255
0.130336
0.133291
0.135835
0.138557
0.141062
0.145627
0.147745
0.148335
0.146965
0.144957
0.14038
0.136417
0.129777
0.14184
0.146164
0.155075
0.161305
0.169434
0.176933
0.185025
0.193098
0.201433
0.20989
0.218533
0.227328
0.236295
0.24542
0.254716
0.26417
0.273796
0.283581
0.293537
0.303651
0.313937
0.324377
0.334986
0.345747
0.356671
0.367741
0.378969
0.390336
0.401852
0.413497
0.425282
0.437183
0.449211
0.461343
0.473588
0.48592
0.49835
0.51085
0.523428
0.536057
0.548744
0.561459
0.57421
0.586967
0.599736
0.612485
0.625217
0.637901
0.650538
0.663092
0.675561
0.68791
0.700128
0.712179
0.724047
0.735698
0.747109
0.758271
0.76921
0.780016
0.790569
0.80088
0.810926
0.820699
0.830181
0.839356
0.848209
0.856722
0.864882
0.872672
0.880076
0.887081
0.893671
0.899833
0.905551
0.910816
0.915611
0.919931
0.92376
0.927095
0.929924
0.93225
0.934063
0.935375
0.936202
0.936458
0.935976
0.935175
0.933663
0.931791
0.929562
0.926765
0.923418
0.919612
0.915329
0.910604
0.905442
0.899871
0.893905
0.887571
0.880886
0.873865
0.866557
0.858998
0.851226
0.843281
0.8352
0.827017
0.818761
0.810464
0.802156
0.793873
0.785641
0.777492
0.769455
0.76156
0.753834
0.746309
0.739007
0.731953
0.725165
0.718667
0.712474
0.706604
0.701062
0.695868
0.691028
0.686541
0.682416
0.678861
0.677876
0.678364
0.678684
0.679464
0.68068
0.682185
0.683871
0.685705
0.687675
0.689689
0.691371
0.692617
0.692939
0.69107
0.669738
0.00671462
0.0223644
0.0324608
0.0402751
0.0473862
0.0544993
0.0618817
0.0695903
0.077566
0.0856991
0.0938698
0.101971
0.109914
0.117626
0.12505
0.132133
0.138833
0.14512
0.150985
0.156451
0.161586
0.166522
0.171512
0.176906
0.182943
0.189862
0.197308
0.204067
0.209866
0.215328
0.220916
0.228174
0.238507
0.247139
0.257993
0.272527
0.286269
0.298729
0.310939
0.323944
0.337265
0.350948
0.364938
0.37925
0.393872
0.408808
0.424053
0.439613
0.455486
0.471676
0.488186
0.505018
0.522173
0.539655
0.557465
0.575604
0.594072
0.612871
0.631999
0.651456
0.671239
0.691348
0.711776
0.732524
0.753582
0.774948
0.796614
0.818573
0.840815
0.863335
0.886118
0.909157
0.932437
0.955948
0.979673
1.0036
1.02771
1.05199
1.07642
1.10099
1.12566
1.15043
1.17527
1.20016
1.22506
1.24996
1.27482
1.29961
1.32429
1.34883
1.37317
1.39727
1.42105
1.44445
1.46737
1.48995
1.51223
1.53416
1.55572
1.57688
1.59761
1.61786
1.63761
1.65683
1.67547
1.69351
1.71091
1.72764
1.74366
1.75893
1.77343
1.78713
1.79999
1.81198
1.82309
1.83327
1.84252
1.85081
1.85812
1.86444
1.86975
1.87405
1.87733
1.87925
1.88019
1.88053
1.87988
1.87803
1.87519
1.87136
1.86658
1.86088
1.8543
1.84686
1.83862
1.82961
1.81989
1.80951
1.79854
1.78704
1.77508
1.76274
1.75009
1.73718
1.72409
1.71087
1.6976
1.68434
1.67115
1.6581
1.64526
1.63267
1.62041
1.60853
1.59709
1.58613
1.57571
1.56588
1.55667
1.54812
1.54024
1.53308
1.52662
1.52089
1.51594
1.51206
1.50893
1.50653
1.50481
1.50369
1.50295
1.50239
1.50187
1.5012
1.50018
1.49854
1.49591
1.49234
1.48505
1.46032
0.0133477
0.0363525
0.0492563
0.0589958
0.0676612
0.0760105
0.0843831
0.0929126
0.101614
0.110441
0.11932
0.12818
0.136957
0.145606
0.15409
0.162388
0.170489
0.1784
0.186153
0.193815
0.201505
0.209399
0.217723
0.226686
0.236401
0.246795
0.257523
0.268324
0.279179
0.290396
0.302439
0.315413
0.329417
0.343762
0.358962
0.374935
0.391065
0.407327
0.423823
0.440739
0.458055
0.475769
0.493868
0.512353
0.531221
0.550474
0.57011
0.590133
0.610542
0.631342
0.652532
0.674116
0.696094
0.718468
0.741239
0.764405
0.787968
0.811926
0.836276
0.861017
0.886145
0.911655
0.937544
0.963803
0.990428
1.01741
1.04474
1.07241
1.1004
1.12871
1.15732
1.18622
1.2154
1.24483
1.2745
1.30439
1.33449
1.36476
1.3952
1.42577
1.45646
1.48724
1.51808
1.54896
1.57984
1.61069
1.64149
1.67219
1.70277
1.73319
1.76342
1.7934
1.82311
1.85253
1.88161
1.91035
1.93871
1.96665
1.99413
2.02111
2.04755
2.07341
2.09865
2.12321
2.14706
2.17015
2.19244
2.21389
2.23445
2.25408
2.27273
2.29037
2.30696
2.32245
2.33682
2.35004
2.36206
2.37287
2.38244
2.39075
2.39777
2.40351
2.40796
2.411
2.41258
2.41313
2.41253
2.41053
2.40724
2.40271
2.39697
2.39006
2.38202
2.3729
2.36275
2.35163
2.33959
2.32672
2.31307
2.29874
2.28382
2.26837
2.2525
2.23629
2.2198
2.20314
2.18638
2.1696
2.15288
2.1363
2.11994
2.10388
2.08819
2.07294
2.05819
2.04403
2.03049
2.01765
2.00555
1.99422
1.98371
1.97403
1.9652
1.95722
1.95009
1.94385
1.93838
1.93369
1.92964
1.9261
1.92291
1.91986
1.91674
1.91336
1.90952
1.90508
1.89979
1.89389
1.88542
1.86621
0.0203071
0.0491426
0.0646669
0.0761036
0.086029
0.0953665
0.104542
0.113758
0.123088
0.132539
0.142081
0.151671
0.16127
0.170851
0.180396
0.189903
0.199383
0.208867
0.218404
0.228073
0.237983
0.248265
0.25906
0.27048
0.282576
0.295296
0.308516
0.322128
0.336136
0.350652
0.365815
0.381675
0.398245
0.415409
0.433146
0.4514
0.470058
0.489064
0.508424
0.528185
0.548365
0.56897
0.590003
0.611466
0.633361
0.655691
0.678458
0.701663
0.725311
0.749403
0.773941
0.798929
0.824367
0.850258
0.876601
0.903398
0.930646
0.958347
0.986496
1.01509
1.04413
1.07361
1.10351
1.13385
1.1646
1.19576
1.22732
1.25926
1.29158
1.32427
1.3573
1.39066
1.42434
1.45831
1.49256
1.52706
1.56179
1.59674
1.63187
1.66716
1.70258
1.73811
1.77371
1.80935
1.84501
1.88065
1.91623
1.95172
1.98709
2.0223
2.05731
2.09209
2.1266
2.1608
2.19465
2.22811
2.26114
2.2937
2.32572
2.35718
2.38801
2.41818
2.44763
2.4763
2.50416
2.53115
2.55722
2.58231
2.60639
2.62939
2.65128
2.672
2.6915
2.70975
2.72671
2.74232
2.75657
2.76941
2.78081
2.79076
2.79922
2.80619
2.81167
2.81563
2.81789
2.81873
2.81826
2.81624
2.81272
2.80775
2.80137
2.79361
2.78454
2.77419
2.76262
2.74991
2.73611
2.72132
2.70561
2.68907
2.67179
2.65388
2.63543
2.61653
2.59728
2.57777
2.5581
2.53835
2.51863
2.49901
2.4796
2.46047
2.44171
2.4234
2.40561
2.38843
2.37191
2.35613
2.34113
2.32696
2.31365
2.30123
2.2897
2.27905
2.26927
2.26034
2.25219
2.24477
2.23796
2.2316
2.22555
2.21963
2.21362
2.20733
2.20062
2.19341
2.18564
2.17764
2.16804
2.15185
0.0270298
0.0608654
0.0787957
0.0918258
0.102928
0.113173
0.123073
0.132893
0.142765
0.152744
0.162843
0.173051
0.183354
0.19374
0.204208
0.214768
0.225442
0.236266
0.247293
0.258592
0.270247
0.282348
0.294986
0.308227
0.322099
0.336585
0.351641
0.367226
0.383332
0.399991
0.417249
0.435135
0.453644
0.472736
0.492379
0.512537
0.533166
0.554235
0.575735
0.597681
0.620083
0.64295
0.666287
0.6901
0.714391
0.739167
0.76443
0.790186
0.816436
0.843186
0.870439
0.898198
0.926465
0.955242
0.984531
1.01433
1.04465
1.07547
1.10681
1.13866
1.17101
1.20386
1.2372
1.27103
1.30534
1.34012
1.37535
1.41104
1.44716
1.48369
1.52063
1.55795
1.59564
1.63367
1.67203
1.71068
1.74961
1.78879
1.82818
1.86777
1.90753
1.94741
1.98739
2.02743
2.0675
2.10756
2.14758
2.18752
2.22733
2.26699
2.30645
2.34566
2.38458
2.42316
2.46137
2.49914
2.53643
2.57319
2.60937
2.64492
2.67977
2.71388
2.74719
2.77965
2.81119
2.84177
2.87133
2.8998
2.92714
2.95329
2.9782
3.00181
3.02407
3.04493
3.06435
3.08228
3.09867
3.1135
3.12672
3.13831
3.14825
3.15651
3.16309
3.16799
3.17106
3.17237
3.17221
3.17032
3.16675
3.16154
3.15472
3.14635
3.13645
3.12511
3.11236
3.0983
3.08298
3.0665
3.04895
3.03042
3.01101
2.99083
2.96997
2.94855
2.92667
2.90443
2.88194
2.8593
2.8366
2.81396
2.79146
2.7692
2.74727
2.72577
2.70477
2.68436
2.6646
2.64557
2.62733
2.60992
2.59337
2.57772
2.56296
2.5491
2.53611
2.52395
2.51256
2.50188
2.49179
2.48216
2.47284
2.46366
2.45444
2.44503
2.43531
2.4253
2.41501
2.40487
2.39382
2.37848
0.0333112
0.0713804
0.0914692
0.10597
0.118175
0.129274
0.139853
0.15023
0.160586
0.171018
0.181576
0.192284
0.20315
0.214182
0.225391
0.236795
0.248423
0.26031
0.272505
0.285062
0.298045
0.311516
0.325535
0.340145
0.355371
0.371214
0.387664
0.404702
0.422321
0.440525
0.459325
0.478727
0.498723
0.519299
0.540434
0.562109
0.584304
0.607003
0.630199
0.653896
0.678097
0.702811
0.728043
0.753799
0.780085
0.806907
0.834271
0.862182
0.890647
0.919669
0.949254
0.979406
1.01013
1.04143
1.0733
1.10575
1.13879
1.1724
1.20659
1.24137
1.27671
1.31263
1.34911
1.38615
1.42374
1.46187
1.50053
1.5397
1.57938
1.61954
1.66016
1.70124
1.74274
1.78465
1.82693
1.86957
1.91253
1.95579
1.99932
2.04307
2.08703
2.13114
2.17538
2.21971
2.26409
2.30848
2.35284
2.39712
2.44128
2.48527
2.52906
2.57258
2.61579
2.65863
2.70105
2.743
2.78443
2.82527
2.86548
2.90499
2.94374
2.98168
3.01875
3.05488
3.09002
3.1241
3.15706
3.18884
3.21939
3.24863
3.27652
3.30298
3.32798
3.35145
3.37333
3.39358
3.41216
3.42902
3.44411
3.45742
3.4689
3.47853
3.48632
3.49224
3.49624
3.49818
3.49846
3.49685
3.49338
3.48807
3.48096
3.47211
3.46154
3.44934
3.43555
3.42026
3.40354
3.38548
3.36618
3.34573
3.32425
3.30184
3.27861
3.25468
3.23015
3.20514
3.17977
3.15413
3.12835
3.10252
3.07676
3.05116
3.02583
3.00086
2.97633
2.95235
2.92897
2.90628
2.88434
2.86321
2.84292
2.8235
2.80497
2.78732
2.77054
2.7546
2.73943
2.72497
2.71112
2.69777
2.68478
2.67202
2.65934
2.6466
2.63376
2.62086
2.608
2.59559
2.58276
2.567
0.038993
0.0805825
0.102549
0.11836
0.131565
0.143452
0.154663
0.165557
0.17635
0.187177
0.198119
0.209229
0.220538
0.232072
0.243854
0.25591
0.26827
0.280971
0.294053
0.307562
0.321543
0.336043
0.351102
0.366754
0.383017
0.399903
0.417409
0.435531
0.454262
0.4736
0.493545
0.514095
0.535243
0.556984
0.579307
0.602202
0.625662
0.649678
0.674248
0.699372
0.725054
0.751301
0.778119
0.805515
0.833496
0.86207
0.891245
0.921027
0.951424
0.982444
1.01409
1.04637
1.0793
1.11287
1.14708
1.18196
1.21748
1.25367
1.29051
1.32801
1.36617
1.40497
1.44442
1.48452
1.52524
1.56658
1.60853
1.65107
1.6942
1.73788
1.78211
1.82685
1.8721
1.91781
1.96397
2.01054
2.05749
2.1048
2.15241
2.20031
2.24844
2.29677
2.34526
2.39387
2.44254
2.49124
2.53991
2.58852
2.637
2.68531
2.73339
2.78118
2.82864
2.8757
2.9223
2.96839
3.0139
3.05878
3.10297
3.14639
3.189
3.23072
3.2715
3.31126
3.34994
3.38747
3.4238
3.45886
3.49257
3.52488
3.55573
3.58504
3.61276
3.63884
3.6632
3.6858
3.70659
3.72551
3.74253
3.7576
3.77069
3.78178
3.79084
3.79787
3.80284
3.80561
3.80641
3.80518
3.80191
3.79662
3.78933
3.78009
3.76895
3.75598
3.74124
3.72479
3.70674
3.68716
3.66615
3.64382
3.62028
3.59564
3.57001
3.54352
3.51628
3.48841
3.46004
3.43128
3.40225
3.37305
3.34381
3.31463
3.28561
3.25686
3.22847
3.20054
3.17314
3.14637
3.12028
3.09495
3.07042
3.04673
3.0239
3.00195
2.98086
2.96062
2.94117
2.92247
2.90444
2.88699
2.87001
2.85339
2.83701
2.8208
2.80472
2.78885
2.77334
2.75856
2.7437
2.72681
0.0439623
0.0884103
0.111957
0.128889
0.142964
0.155553
0.167335
0.178699
0.189889
0.201065
0.212334
0.223772
0.23543
0.247351
0.259568
0.272114
0.285023
0.298329
0.312068
0.326277
0.340992
0.356248
0.372075
0.388497
0.405533
0.423193
0.441482
0.4604
0.479944
0.500114
0.520907
0.542321
0.564354
0.587001
0.610261
0.634129
0.658604
0.683684
0.70937
0.735664
0.762571
0.790099
0.818256
0.847048
0.876487
0.906581
0.93734
0.968773
1.00089
1.0337
1.06721
1.10143
1.13637
1.17203
1.20842
1.24555
1.28342
1.32203
1.36139
1.40149
1.44234
1.48393
1.52625
1.5693
1.61308
1.65756
1.70274
1.7486
1.79513
1.8423
1.8901
1.93849
1.98746
2.03697
2.087
2.1375
2.18845
2.2398
2.29152
2.34357
2.3959
2.44846
2.50121
2.5541
2.60708
2.66009
2.71309
2.76602
2.81881
2.87143
2.92379
2.97584
3.02753
3.07877
3.12952
3.17971
3.22927
3.27814
3.32625
3.37354
3.41994
3.46538
3.50979
3.55311
3.59527
3.63619
3.67582
3.71408
3.7509
3.78621
3.81996
3.85207
3.88248
3.91112
3.93793
3.96286
3.98584
4.00683
4.02577
4.04262
4.05735
4.06992
4.0803
4.08849
4.09446
4.09811
4.09953
4.09877
4.09578
4.09057
4.08318
4.07364
4.062
4.04833
4.0327
4.01517
3.99582
3.97476
3.95208
3.92789
3.90229
3.87541
3.84736
3.81826
3.78825
3.75745
3.72597
3.69395
3.66151
3.62877
3.59584
3.56283
3.52987
3.49705
3.46449
3.43227
3.40049
3.36925
3.33861
3.30866
3.27945
3.25104
3.22346
3.19675
3.1709
3.14592
3.12178
3.09845
3.07589
3.05402
3.03277
3.01207
2.99184
2.97202
2.95262
2.93373
2.91552
2.8983
2.88127
2.86289
0.04815
0.094849
0.119675
0.137527
0.152333
0.165523
0.177803
0.189583
0.201125
0.212608
0.224157
0.235865
0.2478
0.260017
0.272559
0.285464
0.298769
0.312508
0.326712
0.341415
0.356646
0.372432
0.388798
0.405764
0.423345
0.441553
0.460395
0.479875
0.499996
0.520759
0.542163
0.564211
0.586903
0.610239
0.63422
0.658849
0.684127
0.710058
0.736646
0.763898
0.79182
0.820422
0.849713
0.879705
0.910408
0.941835
0.973998
1.00691
1.04058
1.07501
1.11023
1.14625
1.18306
1.22069
1.25914
1.29841
1.33852
1.37947
1.42125
1.46388
1.50735
1.55166
1.59681
1.64278
1.68957
1.73717
1.78556
1.83473
1.88465
1.93531
1.98668
2.03873
2.09143
2.14476
2.19867
2.25313
2.30809
2.36352
2.41937
2.47558
2.53212
2.58893
2.64595
2.70313
2.76042
2.81775
2.87506
2.93229
2.98938
3.04627
3.10288
3.15914
3.215
3.27037
3.3252
3.37941
3.43293
3.4857
3.53764
3.58869
3.63877
3.68781
3.73574
3.7825
3.828
3.87218
3.91497
3.9563
3.9961
4.03429
4.07082
4.1056
4.13858
4.16968
4.19884
4.22601
4.25111
4.27409
4.2949
4.31348
4.32981
4.34384
4.35554
4.36488
4.37185
4.37639
4.3785
4.37825
4.3756
4.37053
4.36308
4.35329
4.34122
4.32691
4.31044
4.29188
4.2713
4.24881
4.2245
4.19847
4.17084
4.14172
4.11124
4.07953
4.0467
4.0129
3.97825
3.94288
3.90691
3.87047
3.83369
3.79668
3.75956
3.72245
3.68545
3.64868
3.61223
3.5762
3.54068
3.50577
3.47152
3.43803
3.40533
3.37348
3.34251
3.31244
3.28327
3.25501
3.22763
3.2011
3.17538
3.15044
3.12622
3.10271
3.07993
3.058
3.03707
3.01739
2.99816
2.97816
0.0515244
0.0999292
0.125749
0.144326
0.159718
0.1734
0.186096
0.19823
0.210075
0.22182
0.233605
0.245533
0.257684
0.270121
0.282896
0.296052
0.309627
0.323655
0.338167
0.353191
0.368756
0.384884
0.401597
0.418913
0.436846
0.455408
0.474609
0.494458
0.51496
0.536119
0.557942
0.580431
0.603592
0.62743
0.65195
0.677158
0.70306
0.729664
0.756978
0.785013
0.813778
0.843286
0.87355
0.904583
0.9364
0.969015
1.00244
1.0367
1.0718
1.10775
1.14457
1.18228
1.22088
1.26039
1.30082
1.34218
1.38447
1.4277
1.47187
1.517
1.56307
1.61008
1.65804
1.70692
1.75673
1.80745
1.85907
1.91155
1.96489
2.01906
2.07403
2.12976
2.18623
2.24339
2.30121
2.35965
2.41865
2.47816
2.53815
2.59854
2.65929
2.72033
2.78161
2.84307
2.90463
2.96623
3.0278
3.08928
3.15059
3.21167
3.27243
3.3328
3.39272
3.4521
3.51087
3.56896
3.62629
3.6828
3.73839
3.79302
3.84659
3.89903
3.95028
4.00026
4.04889
4.09612
4.14185
4.18603
4.22858
4.26944
4.30853
4.34578
4.38113
4.4145
4.44583
4.47506
4.50211
4.52694
4.54949
4.5697
4.58753
4.60293
4.61587
4.62632
4.63426
4.63964
4.64246
4.64273
4.64046
4.63556
4.62808
4.61808
4.60561
4.59072
4.57348
4.55394
4.5322
4.50833
4.48244
4.45463
4.42502
4.3937
4.36083
4.3265
4.29087
4.25406
4.21621
4.17744
4.13788
4.09768
4.05695
4.01581
3.97441
3.93284
3.89124
3.84972
3.80838
3.76735
3.72672
3.68658
3.64705
3.6082
3.57011
3.53286
3.49649
3.46107
3.42663
3.3932
3.3608
3.32944
3.29911
3.2698
3.24152
3.21426
3.18809
3.16312
3.13946
3.11734
3.09595
3.07436
0.0540902
0.103722
0.130274
0.149394
0.165232
0.179296
0.192322
0.20474
0.21683
0.228788
0.240761
0.252859
0.265169
0.277759
0.290687
0.304
0.317738
0.331936
0.346624
0.36183
0.377579
0.393894
0.410793
0.428296
0.446417
0.46517
0.484569
0.504623
0.525343
0.546739
0.568818
0.59159
0.615065
0.639252
0.66416
0.6898
0.716182
0.743319
0.771222
0.799904
0.829383
0.859673
0.890791
0.922754
0.95558
0.989286
1.02389
1.05941
1.09587
1.13327
1.17164
1.21099
1.25135
1.29271
1.3351
1.37852
1.42298
1.4685
1.51508
1.56271
1.6114
1.66115
1.71194
1.76378
1.81665
1.87053
1.9254
1.98125
2.03805
2.09576
2.15436
2.21381
2.27407
2.33509
2.39684
2.45926
2.52229
2.58589
2.64998
2.71452
2.77944
2.84467
2.91014
2.97579
3.04153
3.1073
3.17302
3.23861
3.30399
3.3691
3.43384
3.49814
3.56191
3.62508
3.68757
3.7493
3.81019
3.87017
3.92915
3.98706
4.04383
4.09938
4.15363
4.20652
4.25797
4.30791
4.35627
4.40297
4.44796
4.49115
4.53249
4.57191
4.60932
4.64468
4.67791
4.70894
4.73771
4.76416
4.78824
4.80988
4.82904
4.84566
4.85972
4.87117
4.87999
4.88615
4.88962
4.8904
4.88851
4.88378
4.87629
4.86612
4.8533
4.83788
4.81992
4.79948
4.77664
4.75148
4.7241
4.69459
4.66306
4.62963
4.59442
4.55755
4.51917
4.47939
4.43837
4.39622
4.35309
4.30911
4.26441
4.21912
4.17337
4.1273
4.08101
4.03465
3.98832
3.94215
3.89627
3.85078
3.80579
3.76143
3.71778
3.67495
3.63303
3.5921
3.55223
3.51349
3.47594
3.43963
3.4046
3.37087
3.33847
3.30746
3.2779
3.24989
3.22356
3.19906
3.1756
3.15252
0.055888
0.106341
0.133384
0.152881
0.169032
0.18337
0.196635
0.209263
0.221535
0.23365
0.245758
0.257972
0.270385
0.283069
0.296082
0.309475
0.323287
0.337554
0.352308
0.367576
0.383383
0.399753
0.416705
0.43426
0.452435
0.471247
0.490711
0.510843
0.531655
0.553161
0.575375
0.59831
0.621982
0.646405
0.671591
0.697558
0.724319
0.751892
0.780293
0.809541
0.839655
0.870657
0.902567
0.935406
0.969197
1.00396
1.03971
1.07648
1.11429
1.15314
1.19308
1.2341
1.27623
1.31948
1.36387
1.40942
1.45612
1.50399
1.55303
1.60324
1.65463
1.70719
1.7609
1.81577
1.87177
1.92888
1.98709
2.04636
2.10666
2.16797
2.23024
2.29343
2.35749
2.42238
2.48804
2.55441
2.62144
2.68906
2.7572
2.82579
2.89477
2.96405
3.03357
3.10324
3.17298
3.24271
3.31236
3.38182
3.45103
3.51989
3.58832
3.65624
3.72355
3.79018
3.85604
3.92105
3.98512
4.04818
4.11014
4.17094
4.23049
4.28871
4.34554
4.4009
4.45473
4.50694
4.55748
4.60627
4.65325
4.69836
4.74153
4.78269
4.82177
4.85872
4.89347
4.92595
4.9561
4.98386
5.00918
5.03198
5.05223
5.06987
5.08485
5.09715
5.10672
5.11354
5.11758
5.11881
5.11729
5.11275
5.10524
5.09491
5.08177
5.06588
5.04728
5.02602
5.00218
4.97583
4.94706
4.91596
4.88263
4.8472
4.80977
4.77048
4.72945
4.68682
4.64272
4.59729
4.55067
4.50299
4.45438
4.40499
4.35495
4.30438
4.25343
4.20223
4.1509
4.09959
4.04842
3.99753
3.94705
3.89712
3.84785
3.79938
3.75184
3.70532
3.65996
3.61586
3.57312
3.53183
3.49206
3.4539
3.4174
3.38265
3.34972
3.31875
3.2898
3.26301
3.23762
3.21322
0.0569939
0.107915
0.135234
0.154956
0.1713
0.185808
0.199224
0.211983
0.224369
0.236581
0.248769
0.261048
0.273509
0.286224
0.299254
0.31265
0.326455
0.340704
0.355431
0.370664
0.38643
0.402753
0.419656
0.437162
0.455292
0.474066
0.493507
0.513637
0.53446
0.555995
0.57826
0.601285
0.625091
0.649693
0.675108
0.701353
0.72845
0.756422
0.785293
0.815089
0.845833
0.877553
0.910271
0.944016
0.97881
1.01468
1.05165
1.08974
1.12898
1.16938
1.21098
1.25378
1.29782
1.34309
1.38962
1.43743
1.48651
1.53688
1.58853
1.64147
1.6957
1.75121
1.80797
1.86599
1.92524
1.98569
2.04731
2.11008
2.17396
2.2389
2.30486
2.37179
2.43963
2.50834
2.57784
2.64808
2.71898
2.79047
2.86248
2.93494
3.00776
3.08085
3.15415
3.22755
3.30098
3.37434
3.44754
3.5205
3.59312
3.66532
3.737
3.80807
3.87845
3.94804
4.01676
4.08453
4.15125
4.21685
4.28125
4.34437
4.40614
4.46647
4.52531
4.58257
4.63818
4.6921
4.74424
4.79456
4.84298
4.88945
4.93391
4.97629
5.01654
5.0546
5.0904
5.12388
5.15499
5.18366
5.20985
5.23348
5.25451
5.27288
5.28856
5.30149
5.31164
5.31898
5.32347
5.3251
5.32388
5.31952
5.312
5.30152
5.28812
5.27181
5.25265
5.23067
5.20594
5.17852
5.1485
5.11597
5.08101
5.04374
5.00427
4.96272
4.91922
4.8739
4.8269
4.77836
4.7284
4.67717
4.62481
4.57146
4.51725
4.46232
4.40682
4.35088
4.29465
4.23828
4.18191
4.12569
4.06978
4.01433
3.95949
3.90542
3.85228
3.80023
3.74941
3.69998
3.65207
3.60583
3.56137
3.51882
3.47827
3.43984
3.40363
3.36976
3.33831
3.30936
3.2822
3.25669
0.057383
0.108474
0.135948
0.155783
0.172218
0.186804
0.200288
0.213106
0.225539
0.237784
0.249989
0.262268
0.274713
0.287397
0.300382
0.313718
0.327448
0.341611
0.356241
0.371369
0.387023
0.403232
0.420021
0.437417
0.455445
0.474131
0.493505
0.513596
0.5344
0.555949
0.57826
0.601389
0.625346
0.65015
0.675823
0.702377
0.729849
0.758275
0.787686
0.818115
0.84959
0.882144
0.915805
0.950604
0.986567
1.02372
1.0621
1.10172
1.14261
1.1848
1.2283
1.27313
1.31932
1.36687
1.41581
1.46613
1.51785
1.57096
1.62548
1.68138
1.73867
1.79733
1.85734
1.91867
1.98131
2.04521
2.11035
2.17668
2.24415
2.31272
2.38234
2.45294
2.52446
2.59685
2.67002
2.7439
2.81843
2.89352
2.96909
3.04505
3.12132
3.19781
3.27443
3.35109
3.42769
3.50414
3.58035
3.65622
3.73165
3.80656
3.88084
3.95441
4.02718
4.09905
4.16993
4.23974
4.3084
4.37582
4.44192
4.50663
4.56988
4.63159
4.6917
4.75013
4.80682
4.86172
4.91477
4.96591
5.01509
5.06226
5.10736
5.15033
5.19114
5.22972
5.26602
5.29998
5.33154
5.36066
5.38728
5.41134
5.43279
5.45158
5.46766
5.48098
5.4915
5.49918
5.50399
5.50592
5.50496
5.50077
5.49323
5.48264
5.46902
5.45238
5.43276
5.41018
5.38471
5.35639
5.32531
5.29153
5.25514
5.21625
5.17496
5.13139
5.08565
5.03789
4.98823
4.93681
4.88376
4.82923
4.77334
4.71626
4.6581
4.59903
4.53919
4.47872
4.41779
4.35654
4.29515
4.23378
4.1726
4.11179
4.05153
3.99201
3.93342
3.87596
3.8198
3.76516
3.71221
3.66113
3.6121
3.56527
3.52075
3.47866
3.4392
3.40249
3.3686
3.33764
3.30889
3.28256
0.0572817
0.108311
0.135754
0.155578
0.172004
0.186581
0.200053
0.212852
0.225259
0.237471
0.249637
0.261868
0.274255
0.286871
0.299777
0.313023
0.326654
0.340709
0.355226
0.370236
0.385771
0.401863
0.418543
0.435839
0.453782
0.4724
0.491724
0.511784
0.532611
0.554235
0.576684
0.599989
0.624178
0.649285
0.675345
0.702358
0.730386
0.759467
0.789643
0.82095
0.853426
0.887107
0.922031
0.958225
0.995716
1.03453
1.07471
1.11627
1.15924
1.20364
1.24948
1.29678
1.34556
1.39583
1.44759
1.50085
1.5556
1.61184
1.66957
1.72876
1.7894
1.85147
1.91493
1.97976
2.04592
2.11336
2.18205
2.25192
2.32293
2.39502
2.46812
2.54218
2.61711
2.69285
2.76931
2.84643
2.92411
3.00228
3.08084
3.15971
3.23879
3.31799
3.39723
3.47639
3.55539
3.63413
3.71251
3.79043
3.8678
3.94453
4.02052
4.09567
4.1699
4.24311
4.31521
4.38613
4.45578
4.52408
4.59095
4.65633
4.72014
4.78231
4.84278
4.9015
4.95839
5.01342
5.06654
5.11769
5.16683
5.21392
5.25891
5.30176
5.34243
5.38087
5.41704
5.45087
5.48234
5.51138
5.53795
5.562
5.58347
5.60232
5.61848
5.63192
5.64257
5.65041
5.65541
5.65757
5.6568
5.65279
5.64523
5.63458
5.62082
5.60396
5.58401
5.561
5.53497
5.50596
5.47404
5.43926
5.40171
5.36147
5.31865
5.27335
5.22569
5.17579
5.12379
5.06981
5.01399
4.95647
4.89738
4.83688
4.7751
4.71219
4.64831
4.58361
4.51827
4.45244
4.3863
4.32005
4.25388
4.18797
4.12255
4.05781
3.99401
3.93136
3.87009
3.81033
3.7524
3.69654
3.64298
3.59192
3.54352
3.49812
3.45575
3.41653
3.38054
3.34786
3.3178
3.29095
0.0568381
0.107656
0.134908
0.154611
0.170929
0.185399
0.198766
0.211461
0.223762
0.235866
0.247919
0.260032
0.272294
0.284777
0.297542
0.310642
0.324123
0.338029
0.352398
0.367268
0.382675
0.398657
0.415253
0.4325
0.45044
0.469109
0.488542
0.508776
0.529853
0.551822
0.574703
0.598527
0.623331
0.649148
0.675994
0.703906
0.732974
0.763251
0.794778
0.827595
0.861738
0.897239
0.934126
0.972433
1.01219
1.05343
1.09618
1.14048
1.18634
1.23376
1.28275
1.33332
1.38547
1.43919
1.49449
1.55135
1.60976
1.6697
1.73115
1.79408
1.85846
1.92425
1.99141
2.0599
2.12967
2.20066
2.27282
2.34609
2.4204
2.49569
2.57189
2.64893
2.72673
2.80522
2.8843
2.96391
3.04395
3.12434
3.20499
3.2858
3.3667
3.44757
3.52834
3.60889
3.68915
3.76901
3.84837
3.92715
4.00525
4.08256
4.15902
4.23451
4.30896
4.38227
4.45437
4.52517
4.59459
4.66256
4.72901
4.79388
4.8571
4.91861
4.97835
5.03626
5.0923
5.14643
5.19861
5.24881
5.29697
5.34308
5.3871
5.429
5.46874
5.50628
5.5416
5.57465
5.60537
5.63375
5.65974
5.68329
5.70434
5.72286
5.73877
5.75202
5.76256
5.77036
5.77539
5.77768
5.77707
5.77323
5.7657
5.75505
5.74123
5.72426
5.70414
5.68088
5.65449
5.62503
5.59252
5.55701
5.51858
5.4773
5.43325
5.38654
5.33728
5.28558
5.23157
5.17538
5.11713
5.05697
4.99503
4.93145
4.86638
4.79998
4.7324
4.66381
4.59438
4.52429
4.45373
4.38292
4.31202
4.24122
4.1708
4.10103
4.03216
3.96448
3.89825
3.83389
3.77153
3.71145
3.6539
3.59914
3.54747
3.49892
3.45378
3.4122
3.37426
3.34005
3.3089
3.28185
0.0559925
0.106329
0.133225
0.152675
0.168772
0.18304
0.196218
0.208738
0.220878
0.232833
0.244748
0.256732
0.268873
0.281244
0.293908
0.306921
0.320335
0.334197
0.348553
0.363451
0.378933
0.395045
0.411833
0.42935
0.447661
0.466789
0.486775
0.507667
0.529507
0.552316
0.57611
0.600978
0.626986
0.654193
0.682673
0.712468
0.74363
0.776206
0.81024
0.84577
0.882826
0.921437
0.961626
1.00341
1.04682
1.09186
1.13853
1.18686
1.23683
1.28842
1.34164
1.39647
1.4529
1.5109
1.57045
1.63152
1.69407
1.75807
1.82348
1.89026
1.95836
2.02772
2.09831
2.17005
2.2429
2.3168
2.39168
2.46747
2.54412
2.62155
2.6997
2.77849
2.85785
2.9377
3.01796
3.09855
3.17939
3.26041
3.34151
3.42261
3.50362
3.58446
3.66503
3.74525
3.82503
3.90427
3.98289
4.0608
4.13791
4.21413
4.28937
4.36356
4.43661
4.50844
4.57897
4.64812