/*--------------------------------*- C++ -*----------------------------------*\
  =========                 |
  \\      /  F ield         | OpenFOAM: The Open Source CFD Toolbox
   \\    /   O peration     | Website:  https://openfoam.org
    \\  /    A nd           | Version:  7
     \\/     M anipulation  |
\*---------------------------------------------------------------------------*/
FoamFile
{
    version     2.0;
    format      ascii;
    class       volScalarField;
    location    "200";
    object      nut;
}
// * * * * * * * * * * * * * * * * * * * * * * * * * * * * * * * * * * * * * //

dimensions      [0 2 -1 0 0 0 0];

internalField   nonuniform List<scalar> 
12225
(
4.14924e-05
3.93409e-05
3.74829e-05
3.54331e-05
3.37838e-05
3.24212e-05
3.15092e-05
3.09116e-05
3.09178e-05
3.10953e-05
3.15721e-05
3.21028e-05
3.31582e-05
3.37989e-05
3.513e-05
3.56776e-05
3.73801e-05
3.66457e-05
0.000332215
0.000215176
0.000179269
0.000157677
0.000146208
0.000138209
0.000132729
0.000131667
0.000129493
0.000130081
0.000129031
0.000129457
0.000128643
0.000128574
0.000128075
0.000127415
0.000127414
0.00012649
0.000668679
0.00045066
0.000355751
0.000309835
0.000275276
0.000251103
0.000231699
0.000217282
0.000202655
0.000192135
0.000182597
0.000175213
0.000169356
0.000163673
0.000160283
0.000155544
0.000153782
0.000149829
0.000801681
0.000691666
0.000572542
0.000500062
0.000449369
0.000411994
0.000380759
0.000356014
0.000333985
0.000314787
0.000298302
0.000281713
0.000270284
0.000256051
0.000248173
0.000236131
0.000230348
0.000220411
0.000839623
0.00081019
0.000740696
0.000676421
0.000623918
0.000581394
0.000545852
0.000514564
0.000489501
0.00046443
0.000445842
0.000424062
0.000409916
0.000390783
0.000379852
0.00036306
0.000354423
0.000339465
0.000850344
0.000843278
0.000819552
0.000786529
0.000750764
0.000715889
0.000685747
0.000656132
0.000632538
0.000607512
0.000588985
0.000567234
0.000552265
0.000533076
0.000520751
0.000503698
0.000493259
0.000477446
0.000851579
0.000851019
0.000843299
0.000833478
0.000817108
0.000796952
0.000777866
0.000756734
0.000738895
0.000719141
0.000703525
0.00068561
0.000672109
0.000655905
0.000644282
0.000629505
0.000619473
0.000605121
0.000851581
0.000851816
0.000850037
0.000847462
0.000841401
0.00083375
0.000824822
0.000813432
0.000802808
0.000790467
0.00077971
0.000767532
0.000757415
0.000745771
0.000736522
0.00072551
0.000717127
0.000706016
0.000851673
0.000851531
0.000851015
0.000850343
0.000848875
0.00084617
0.000843026
0.000838304
0.000833401
0.000827359
0.000821213
0.000814769
0.000808403
0.000801519
0.00079523
0.000788406
0.000782155
0.000775242
0.000851754
0.000851386
0.000851043
0.000850633
0.000850247
0.000849368
0.000848404
0.00084678
0.000844955
0.000842529
0.000839922
0.000836797
0.000833791
0.000830149
0.000826965
0.00082292
0.000819892
0.000815289
0.000851784
0.000851358
0.000851012
0.000850613
0.000850329
0.000849905
0.000849525
0.000848928
0.000848303
0.000847393
0.000846465
0.000845176
0.000843989
0.00084235
0.000840994
0.000839029
0.000837635
0.000835357
0.000851788
0.000851359
0.000850995
0.000850605
0.000850292
0.000849938
0.000849646
0.00084928
0.000848955
0.000848504
0.000848098
0.000847507
0.000846997
0.000846243
0.00084564
0.000844719
0.000844056
0.000842974
0.000851786
0.000851363
0.000850985
0.000850604
0.000850269
0.000849926
0.00084963
0.000849313
0.000849042
0.000848728
0.000848462
0.000848126
0.000847843
0.000847465
0.000847156
0.000846725
0.000846386
0.000845901
0.000851783
0.000851364
0.000850978
0.000850602
0.000850256
0.000849916
0.000849607
0.0008493
0.000849022
0.00084874
0.000848488
0.000848224
0.000847988
0.000847734
0.000847508
0.000847257
0.000847033
0.000846783
0.000851781
0.000851364
0.000850973
0.000850598
0.000850246
0.000849908
0.000849591
0.000849286
0.000849
0.000848723
0.000848463
0.000848211
0.000847975
0.000847744
0.000847527
0.000847316
0.000847115
0.000846919
0.00085178
0.000851363
0.000850969
0.000850594
0.000850239
0.000849901
0.00084958
0.000849275
0.000848984
0.000848707
0.000848443
0.000848191
0.000847951
0.000847721
0.000847502
0.000847293
0.000847093
0.000846901
0.000851779
0.000851362
0.000850967
0.000850591
0.000850234
0.000849895
0.000849572
0.000849265
0.000848973
0.000848694
0.000848428
0.000848175
0.000847933
0.000847701
0.00084748
0.000847269
0.000847067
0.000846874
0.000851779
0.000851362
0.000850965
0.000850588
0.000850231
0.00084989
0.000849567
0.000849259
0.000848965
0.000848685
0.000848418
0.000848163
0.00084792
0.000847687
0.000847465
0.000847252
0.000847049
0.000846854
0.000851779
0.000851362
0.000850965
0.000850588
0.00085023
0.000849889
0.000849565
0.000849256
0.000848962
0.000848681
0.000848414
0.000848158
0.000847914
0.00084768
0.000847457
0.000847243
0.000847039
0.000846844
0.000851779
0.000851362
0.000850966
0.000850589
0.000850231
0.000849891
0.000849567
0.000849259
0.000848965
0.000848685
0.000848417
0.000848162
0.000847917
0.000847684
0.00084746
0.000847246
0.000847041
0.000846845
0.000851779
0.000851363
0.000850967
0.000850592
0.000850235
0.000849897
0.000849573
0.000849267
0.000848972
0.000848694
0.000848424
0.000848169
0.00084792
0.000847683
0.000847451
0.000847231
0.000847013
0.000846806
0.000851778
0.000851366
0.000850968
0.000850599
0.00085024
0.000849907
0.00084958
0.000849274
0.000848964
0.000848671
0.000848365
0.000848072
0.000847756
0.000847456
0.000847123
0.000846811
0.000846457
0.000846136
0.000851773
0.000851376
0.000850971
0.000850615
0.000850241
0.000849889
0.000849478
0.000849054
0.000848529
0.000847978
0.000847301
0.000846605
0.000845767
0.000844939
0.000843955
0.000843029
0.000841918
0.00084094
0.000851768
0.000851415
0.000850964
0.000850548
0.000849861
0.000848966
0.00084761
0.000845976
0.000843905
0.000841636
0.000838955
0.000836214
0.000833117
0.000830114
0.000826763
0.00082368
0.000820184
0.000817178
0.000851859
0.00085138
0.000850195
0.000848243
0.000844469
0.000839354
0.000832765
0.000825658
0.000817962
0.000810011
0.000801618
0.000793628
0.000785332
0.000777707
0.000769744
0.000762701
0.000755124
0.000748795
0.000852108
0.000847667
0.000839902
0.000827146
0.000808707
0.000789646
0.000769975
0.000751413
0.000733305
0.000716896
0.000700934
0.000686781
0.000672831
0.000660671
0.000648379
0.000637942
0.000626955
0.000618022
0.000843241
0.000822506
0.000775185
0.000726459
0.000684894
0.000649852
0.000618461
0.00059202
0.000568382
0.000548312
0.000529689
0.000513992
0.000498753
0.000486018
0.000473203
0.00046271
0.000451624
0.000442807
0.000795685
0.000668241
0.000570627
0.000509905
0.000465605
0.000431184
0.000404146
0.000382481
0.0003642
0.00034907
0.000335942
0.000325063
0.000314508
0.000306237
0.000297961
0.000291369
0.000284283
0.000278933
0.000501314
0.000348356
0.000292674
0.00025918
0.000236323
0.000221177
0.000211621
0.000203855
0.000198564
0.000195076
0.000192221
0.000190368
0.000188583
0.000187438
0.000186166
0.000185472
0.000184555
0.000184142
7.27384e-05
7.02255e-05
6.79541e-05
6.56137e-05
6.33828e-05
6.12762e-05
5.94944e-05
5.79551e-05
5.67109e-05
5.57031e-05
5.49776e-05
5.44178e-05
5.41095e-05
5.38808e-05
5.38974e-05
5.39325e-05
5.40913e-05
5.43237e-05
4.81496e-07
1.0695e-05
1.90514e-05
2.6942e-05
3.52919e-05
4.42055e-05
5.37613e-05
6.39256e-05
7.45275e-05
8.53655e-05
9.62111e-05
0.000106884
0.000117206
0.00012705
0.000136286
0.000144828
0.000152597
0.000159589
0.000165852
0.000171567
0.000177035
0.000181811
0.000186802
0.000196045
0.00020669
0.000219019
0.000230507
0.000238036
0.000235925
0.000230678
0.000219382
0.00020981
0.000201887
0.000182278
3.82649e-05
4.54477e-05
4.76486e-05
4.84176e-05
4.95532e-05
5.07169e-05
5.18245e-05
5.29699e-05
5.40883e-05
5.52181e-05
5.6338e-05
5.74582e-05
5.85743e-05
5.96875e-05
6.07982e-05
6.19055e-05
6.30107e-05
6.41126e-05
6.52125e-05
6.63094e-05
6.7404e-05
6.84955e-05
6.95847e-05
7.06705e-05
7.17535e-05
7.28329e-05
7.3909e-05
7.4981e-05
7.60491e-05
7.71124e-05
7.81711e-05
7.92243e-05
8.02721e-05
8.13135e-05
8.23485e-05
8.33763e-05
8.43967e-05
8.54089e-05
8.64126e-05
8.7407e-05
8.83919e-05
8.93663e-05
9.03299e-05
9.12821e-05
9.22224e-05
9.31499e-05
9.40642e-05
9.49645e-05
9.58502e-05
9.67204e-05
9.75743e-05
9.84111e-05
9.92297e-05
0.000100029
0.000100808
0.000101566
0.000102299
0.000103009
0.000103693
0.000104352
0.000104991
0.000105614
0.000106212
0.000106786
0.000107338
0.000107865
0.000108368
0.000108846
0.000109298
0.000109723
0.000110122
0.000110493
0.000110836
0.000111151
0.000111436
0.000111691
0.000111916
0.000112111
0.000112274
0.000112406
0.000112506
0.000112573
0.000112607
0.00011261
0.000112579
0.000112519
0.000112414
0.000112282
0.000112116
0.000111905
0.000111665
0.000111409
0.000111123
0.000110791
0.000110431
0.000110038
0.000109614
0.000109159
0.000108675
0.000108162
0.00010762
0.000107052
0.000106456
0.000105838
0.000105199
0.000104541
0.000103865
0.000103173
0.000102468
0.00010175
0.000101023
0.000100287
9.95472e-05
9.88023e-05
9.80567e-05
9.73103e-05
9.65679e-05
9.58283e-05
9.50969e-05
9.43726e-05
9.36606e-05
9.29605e-05
9.22782e-05
9.16123e-05
9.09665e-05
9.03388e-05
8.9736e-05
8.91567e-05
8.8605e-05
8.80859e-05
8.76512e-05
8.77526e-05
8.7664e-05
8.74007e-05
8.72051e-05
8.70507e-05
8.69288e-05
8.68247e-05
8.6731e-05
8.66659e-05
8.66559e-05
8.66347e-05
8.65749e-05
8.64818e-05
8.62684e-05
8.49863e-05
2.07778e-06
3.88036e-05
8.17814e-05
0.000111354
0.000131133
0.000146264
0.000159476
0.000172123
0.000184728
0.000197381
0.00020997
0.000222314
0.000234218
0.000245506
0.000256014
0.000265612
0.0002742
0.000281745
0.000288307
0.000294086
0.000299467
0.000304709
0.000309651
0.000314767
0.000319994
0.000324791
0.000328113
0.000326797
0.000321011
0.000311297
0.000297004
0.000281297
0.000278279
0.000254726
0.000243083
0.000261277
0.000272212
0.000278344
0.000285339
0.000292522
0.000300189
0.000307873
0.000315741
0.00032369
0.000331744
0.000339876
0.000348087
0.000356368
0.000364723
0.000373148
0.000381646
0.000390216
0.000398863
0.000407586
0.00041639
0.000425274
0.000434244
0.000443297
0.000452439
0.000461667
0.000470986
0.000480393
0.000489892
0.000499479
0.000509157
0.000518922
0.000528776
0.000538714
0.000548738
0.000558842
0.000569027
0.000579286
0.000589621
0.000600024
0.000610495
0.000621027
0.000631619
0.000642262
0.000652958
0.000663698
0.000674482
0.000685303
0.00069616
0.000707047
0.000717961
0.000728896
0.000739849
0.000750807
0.000761762
0.000772689
0.000783553
0.000794286
0.000804774
0.000814833
0.000824161
0.000833294
0.000842319
0.00085123
0.000860018
0.000868677
0.000877196
0.000885565
0.000893774
0.000901812
0.000909669
0.000917333
0.000924794
0.00093204
0.00093906
0.000945843
0.000952376
0.000958648
0.000964648
0.000970365
0.000975785
0.000980902
0.0009857
0.000990175
0.000994317
0.000998133
0.00100165
0.00100493
0.00100779
0.00101001
0.00101175
0.00101351
0.00101502
0.001016
0.00101661
0.00101686
0.00101674
0.00101627
0.00101544
0.00101428
0.00101279
0.00101099
0.00100889
0.0010065
0.00100384
0.00100091
0.000997749
0.000994361
0.000990776
0.000987014
0.000983102
0.000979058
0.00097491
0.000970673
0.00096638
0.000962044
0.000957698
0.000953352
0.000949036
0.000944765
0.000940577
0.000936491
0.000932544
0.000928747
0.000925122
0.000921676
0.000918437
0.000915404
0.000912594
0.000910009
0.000907644
0.000905413
0.000901105
0.000896781
0.000892705
0.000888784
0.000884907
0.000881011
0.000876996
0.000872745
0.000868426
0.000864007
0.000858882
0.000852647
0.00084374
0.000819152
4.13862e-06
6.07906e-05
0.000125882
0.000175514
0.00021174
0.000238473
0.000259264
0.000276632
0.00029215
0.000306677
0.000320596
0.000334013
0.000346883
0.000359096
0.00037052
0.000381028
0.000390525
0.000398968
0.000406389
0.000412904
0.000418694
0.000424224
0.00043054
0.000438004
0.000446438
0.000455315
0.00046353
0.000470253
0.000475244
0.000478864
0.00048222
0.000486587
0.000493231
0.000498525
0.000510186
0.000527889
0.000543945
0.00055926
0.00057478
0.000590389
0.000606235
0.00062222
0.000638371
0.000654661
0.000671089
0.000687647
0.000704337
0.000721155
0.000738104
0.000755185
0.000772404
0.000789762
0.000807263
0.00082491
0.000842707
0.000860655
0.000878758
0.000897015
0.000915429
0.000933999
0.000952726
0.000971609
0.000990646
0.00100983
0.00102917
0.00104866
0.00106828
0.00108804
0.00110794
0.00112796
0.0011481
0.00116835
0.0011887
0.00120916
0.0012297
0.00125033
0.00127102
0.00129178
0.00131259
0.00133344
0.00135432
0.00137522
0.00139614
0.00141705
0.00143795
0.00145882
0.00147964
0.00150038
0.00152102
0.00154151
0.00156179
0.0015818
0.00160143
0.00162062
0.00163935
0.00165783
0.00167608
0.00169409
0.00171185
0.00172932
0.0017465
0.00176337
0.00177989
0.00179605
0.00181184
0.00182722
0.00184218
0.00185669
0.00187074
0.00188429
0.00189733
0.00190984
0.00192179
0.00193315
0.00194392
0.00195406
0.00196357
0.00197242
0.00198061
0.00198813
0.001995
0.00200119
0.00200688
0.00201152
0.00201494
0.00201808
0.00202078
0.00202257
0.00202359
0.00202386
0.0020234
0.00202221
0.00202032
0.00201775
0.0020145
0.00201062
0.00200612
0.00200104
0.00199539
0.00198921
0.00198254
0.00197542
0.0019679
0.00196002
0.00195182
0.00194335
0.00193466
0.00192579
0.00191678
0.0019077
0.00189857
0.00188945
0.00188038
0.0018714
0.00186257
0.00185394
0.00184555
0.00183745
0.00182967
0.00182223
0.00181517
0.0018085
0.00180223
0.00179634
0.00179078
0.00178519
0.00177813
0.00177087
0.0017638
0.00175718
0.00175039
0.00174353
0.00173646
0.00172873
0.00172093
0.00171314
0.00170398
0.00169274
0.00167568
0.00163531
6.30287e-06
7.74172e-05
0.0001592
0.000223581
0.000271887
0.000308205
0.0003363
0.000359031
0.0003784
0.000395699
0.000411688
0.000426758
0.000441076
0.000454676
0.000467529
0.000479592
0.000490841
0.00050131
0.000511119
0.000520505
0.000529839
0.000539622
0.000550406
0.000562522
0.000576003
0.000590578
0.000605692
0.000620823
0.000635738
0.000650604
0.000665894
0.00068204
0.00069876
0.00071743
0.00073833
0.000760764
0.00078289
0.000804907
0.00082713
0.000849568
0.000872188
0.000894972
0.000917924
0.000941042
0.000964325
0.000987774
0.00101139
0.00103518
0.00105914
0.00108328
0.0011076
0.00113212
0.00115682
0.00118173
0.00120684
0.00123215
0.00125766
0.00128338
0.00130931
0.00133543
0.00136177
0.0013883
0.00141502
0.00144194
0.00146904
0.00149632
0.00152378
0.0015514
0.00157917
0.0016071
0.00163516
0.00166334
0.00169164
0.00172004
0.00174853
0.0017771
0.00180573
0.00183441
0.00186312
0.00189185
0.00192059
0.0019493
0.00197799
0.00200662
0.00203518
0.00206365
0.00209198
0.00212016
0.00214815
0.0021759
0.00220337
0.00223049
0.00225722
0.0022835
0.00230941
0.002335
0.00236027
0.0023852
0.00240976
0.00243393
0.00245769
0.00248101
0.00250386
0.00252621
0.00254804
0.00256932
0.00259002
0.00261011
0.00262956
0.00264834
0.00266643
0.00268379
0.00270039
0.00271621
0.00273122
0.00274538
0.00275868
0.0027711
0.00278261
0.00279321
0.00280288
0.00281159
0.0028196
0.00282653
0.00283176
0.00283622
0.0028401
0.00284283
0.00284448
0.0028451
0.00284469
0.00284327
0.00284087
0.00283751
0.0028332
0.00282799
0.00282191
0.00281499
0.00280727
0.0027988
0.00278962
0.0027798
0.00276939
0.00275845
0.00274705
0.00273524
0.00272309
0.00271066
0.00269801
0.00268522
0.00267235
0.00265945
0.00264661
0.00263388
0.00262133
0.00260903
0.00259704
0.00258542
0.00257422
0.00256348
0.00255325
0.00254354
0.00253436
0.00252571
0.00251751
0.00250945
0.00250075
0.00249193
0.00248334
0.00247481
0.00246653
0.00245825
0.00244978
0.00244075
0.00243157
0.00242191
0.00241099
0.00239765
0.0023772
0.0023344
8.39418e-06
9.12666e-05
0.000186824
0.000263376
0.00032223
0.000367095
0.000401947
0.000429905
0.000453268
0.000473645
0.000492095
0.000509275
0.000525568
0.00054118
0.000556221
0.000570758
0.000584856
0.000598615
0.0006122
0.000625854
0.000639904
0.00065473
0.000670699
0.000688058
0.000706848
0.000726866
0.000747796
0.000769342
0.000791331
0.000813783
0.000836901
0.000860935
0.000885464
0.000910749
0.000936934
0.000963686
0.000990828
0.00101822
0.00104574
0.00107339
0.00110121
0.00112921
0.0011574
0.00118578
0.00121435
0.00124313
0.0012721
0.00130128
0.00133066
0.00136025
0.00139005
0.00142007
0.00145032
0.00148081
0.00151153
0.00154249
0.00157368
0.00160511
0.00163677
0.00166867
0.00170078
0.00173312
0.00176567
0.00179843
0.00183138
0.00186453
0.00189786
0.00193135
0.001965
0.0019988
0.00203272
0.00206677
0.00210091
0.00213514
0.00216944
0.0022038
0.00223819
0.0022726
0.00230701
0.0023414
0.00237575
0.00241003
0.00244424
0.00247834
0.00251231
0.00254612
0.00257974
0.00261315
0.00264631
0.00267918
0.00271173
0.00274393
0.00277576
0.00280721
0.00283828
0.00286898
0.0028993
0.0029292
0.00295868
0.00298769
0.00301621
0.00304422
0.00307167
0.00309855
0.00312482
0.00315044
0.0031754
0.00319965
0.00322316
0.0032459
0.00326783
0.00328892
0.00330914
0.00332845
0.00334682
0.00336422
0.00338061
0.00339598
0.00341029
0.00342352
0.00343565
0.00344665
0.00345676
0.00346581
0.00347301
0.00347895
0.00348418
0.0034881
0.00349075
0.00349214
0.0034923
0.00349125
0.00348899
0.00348556
0.00348098
0.00347529
0.00346853
0.00346073
0.00345194
0.00344222
0.00343162
0.0034202
0.00340804
0.0033952
0.00338176
0.00336778
0.00335335
0.00333853
0.0033234
0.00330806
0.00329257
0.00327702
0.00326148
0.00324605
0.0032308
0.00321582
0.00320118
0.00318695
0.00317321
0.00316
0.00314739
0.00313541
0.00312407
0.00311338
0.00310328
0.00309355
0.0030838
0.00307414
0.00306474
0.00305545
0.00304636
0.0030373
0.00302813
0.00301861
0.00300884
0.00299853
0.00298713
0.00297343
0.00295338
0.00291397
1.03486e-05
0.000102833
0.000209896
0.000296935
0.000365199
0.000417948
0.000459263
0.000492436
0.000519983
0.000543752
0.000565045
0.000584747
0.000603441
0.000621501
0.000639172
0.000656622
0.00067399
0.000691417
0.000709065
0.000727133
0.000745854
0.000765472
0.000786207
0.000808199
0.000831468
0.000855905
0.00088132
0.000907513
0.000934337
0.000961734
0.000989732
0.00101835
0.00104751
0.00107724
0.0011075
0.0011382
0.00116924
0.00120054
0.00123204
0.00126374
0.00129562
0.00132771
0.00135999
0.00139248
0.00142518
0.00145809
0.00149122
0.00152457
0.00155815
0.00159197
0.00162604
0.00166034
0.00169488
0.00172965
0.00176467
0.00179992
0.0018354
0.00187112
0.00190706
0.00194323
0.00197962
0.00201622
0.00205302
0.00209002
0.0021272
0.00216455
0.00220207
0.00223974
0.00227754
0.00231547
0.00235351
0.00239164
0.00242984
0.00246811
0.00250642
0.00254475
0.00258309
0.00262141
0.00265971
0.00269795
0.00273611
0.00277419
0.00281214
0.00284995
0.0028876
0.00292505
0.00296229
0.00299929
0.00303601
0.00307244
0.00310855
0.00314432
0.00317973
0.00321476
0.00324941
0.00328367
0.0033175
0.00335089
0.00338381
0.00341624
0.00344815
0.0034795
0.00351027
0.00354042
0.00356993
0.00359877
0.00362689
0.00365426
0.00368086
0.00370664
0.00373156
0.0037556
0.00377871
0.00380085
0.003822
0.00384211
0.00386115
0.00387908
0.00389588
0.00391151
0.00392594
0.00393914
0.0039513
0.00396241
0.00397172
0.00397939
0.00398621
0.00399162
0.00399562
0.00399822
0.00399943
0.00399925
0.00399772
0.00399485
0.00399067
0.00398522
0.00397853
0.00397064
0.0039616
0.00395147
0.00394031
0.00392818
0.00391516
0.00390132
0.00388673
0.00387148
0.00385566
0.00383933
0.0038226
0.00380556
0.00378828
0.00377088
0.00375343
0.00373605
0.00371881
0.00370182
0.00368517
0.00366894
0.00365321
0.00363806
0.00362356
0.00360976
0.00359668
0.00358435
0.00357272
0.00356169
0.00355101
0.00354067
0.00353071
0.00352106
0.00351167
0.00350244
0.00349323
0.00348389
0.00347435
0.00346442
0.00345363
0.00344093
0.003423
0.00339019
1.2117e-05
0.000112369
0.000229005
0.000325159
0.000401867
0.000462003
0.000509576
0.000547989
0.000579905
0.000607344
0.000631795
0.000654327
0.000675691
0.000696404
0.000716826
0.00073721
0.000757751
0.00077861
0.000799936
0.00082188
0.000844593
0.00086822
0.000892877
0.00091863
0.00094548
0.000973358
0.00100215
0.00103172
0.00106195
0.00109277
0.00112415
0.00115606
0.00118847
0.00122135
0.00125466
0.00128834
0.00132234
0.0013566
0.0013911
0.00142581
0.00146072
0.00149585
0.00153117
0.0015667
0.00160244
0.0016384
0.00167457
0.00171096
0.00174758
0.00178443
0.00182151
0.00185882
0.00189637
0.00193414
0.00197214
0.00201036
0.00204882
0.00208749
0.00212638
0.00216548
0.00220478
0.00224429
0.00228398
0.00232384
0.00236388
0.00240407
0.00244441
0.00248488
0.00252547
0.00256616
0.00260694
0.0026478
0.00268871
0.00272966
0.00277063
0.00281161
0.00285257
0.0028935
0.00293437
0.00297517
0.00301588
0.00305648
0.00309693
0.00313723
0.00317735
0.00321727
0.00325696
0.0032964
0.00333557
0.00337444
0.003413
0.00345123
0.00348911
0.00352662
0.00356374
0.00360047
0.00363677
0.00367262
0.003708
0.00374289
0.00377725
0.00381105
0.00384428
0.00387689
0.00390886
0.00394016
0.00397074
0.00400059
0.00402965
0.0040579
0.00408529
0.0041118
0.00413737
0.00416197
0.00418557
0.00420811
0.00422956
0.00424988
0.00426904
0.00428699
0.0043037
0.00431913
0.0043334
0.00434662
0.00435812
0.00436792
0.00437652
0.00438372
0.00438943
0.00439361
0.00439627
0.00439742
0.00439709
0.00439528
0.00439203
0.00438737
0.00438133
0.00437394
0.00436526
0.00435535
0.00434425
0.00433204
0.00431879
0.00430457
0.00428947
0.00427357
0.00425696
0.00423972
0.00422195
0.00420375
0.00418522
0.00416646
0.00414757
0.00412867
0.00410985
0.00409123
0.0040729
0.00405497
0.00403754
0.00402069
0.00400451
0.00398906
0.0039744
0.00396055
0.00394752
0.00393524
0.00392359
0.00391251
0.00390198
0.00389195
0.00388234
0.00387307
0.00386402
0.00385506
0.00384613
0.00383704
0.00382746
0.00381651
0.00380152
0.0037756
1.3664e-05
0.000120047
0.000244533
0.000348821
0.000432898
0.000499893
0.000553488
0.000597111
0.000633505
0.000664802
0.000692624
0.000718177
0.000742341
0.000765749
0.000788854
0.000811979
0.00083536
0.000859174
0.000883562
0.000908643
0.000934517
0.000961272
0.000988963
0.00101761
0.0010472
0.00107768
0.00110897
0.001141
0.00117366
0.00120689
0.00124065
0.0012749
0.0013096
0.00134471
0.00138021
0.00141604
0.00145217
0.00148856
0.00152517
0.001562
0.00159903
0.00163625
0.00167368
0.00171129
0.00174911
0.00178713
0.00182535
0.00186377
0.00190241
0.00194126
0.00198032
0.00201959
0.00205908
0.00209878
0.00213869
0.00217881
0.00221914
0.00225967
0.0023004
0.00234132
0.00238242
0.00242371
0.00246517
0.00250679
0.00254856
0.00259047
0.00263251
0.00267467
0.00271693
0.00275928
0.00280171
0.00284421
0.00288674
0.00292931
0.0029719
0.00301447
0.00305703
0.00309955
0.00314201
0.00318439
0.00322668
0.00326885
0.00331089
0.00335277
0.00339448
0.00343599
0.00347728
0.00351834
0.00355914
0.00359966
0.00363989
0.00367981
0.0037194
0.00375863
0.0037975
0.00383599
0.00387407
0.00391172
0.00394892
0.00398564
0.00402186
0.00405756
0.0040927
0.00412726
0.0041612
0.0041945
0.00422713
0.00425904
0.00429021
0.0043206
0.00435017
0.00437888
0.00440668
0.00443355
0.00445942
0.00448427
0.00450805
0.00453071
0.00455221
0.00457251
0.00459156
0.00460932
0.00462587
0.0046413
0.00465509
0.00466726
0.00467797
0.00468727
0.004695
0.0047011
0.00470557
0.00470843
0.00470968
0.00470935
0.00470746
0.00470402
0.00469908
0.00469265
0.00468479
0.00467555
0.00466497
0.00465314
0.00464011
0.00462596
0.00461077
0.00459463
0.00457762
0.00455984
0.0045414
0.00452238
0.0045029
0.00448306
0.00446298
0.00444278
0.00442257
0.00440247
0.00438259
0.00436306
0.00434398
0.00432546
0.0043076
0.00429048
0.00427419
0.00425877
0.00424425
0.00423063
0.00421783
0.00420583
0.00419457
0.00418402
0.00417412
0.00416477
0.0041559
0.00414742
0.00413924
0.00413126
0.00412322
0.0041144
0.00410271
0.00408321
1.49678e-05
0.000126031
0.000256817
0.000368061
0.000458686
0.000531983
0.000591292
0.00064
0.00068087
0.000716095
0.00074738
0.000776027
0.000803009
0.000829049
0.000854673
0.000880265
0.000906093
0.000932348
0.000959167
0.000986652
0.00101488
0.00104395
0.00107387
0.00110464
0.00113622
0.00116857
0.00120163
0.00123535
0.00126965
0.00130449
0.00133981
0.00137557
0.00141174
0.00144828
0.00148518
0.00152242
0.00155991
0.00159763
0.00163556
0.00167368
0.00171197
0.00175044
0.00178908
0.00182789
0.00186688
0.00190604
0.00194539
0.00198491
0.00202463
0.00206453
0.00210462
0.0021449
0.00218537
0.00222603
0.00226688
0.00230793
0.00234916
0.00239057
0.00243217
0.00247394
0.00251589
0.00255801
0.00260028
0.00264271
0.00268528
0.00272799
0.00277083
0.00281378
0.00285683
0.00289998
0.00294321
0.0029865
0.00302985
0.00307324
0.00311665
0.00316006
0.00320347
0.00324685
0.00329019
0.00333347
0.00337667
0.00341978
0.00346277
0.00350562
0.00354832
0.00359086
0.0036332
0.00367533
0.00371723
0.00375889
0.00380029
0.0038414
0.00388221
0.00392271
0.00396287
0.00400268
0.00404212
0.00408116
0.00411978
0.00415797
0.0041957
0.00423294
0.00426968
0.00430588
0.00434151
0.00437655
0.00441097
0.00444473
0.0044778
0.00451014
0.00454173
0.0045725
0.00460243
0.00463147
0.00465957
0.0046867
0.00471279
0.00473781
0.0047617
0.00478442
0.00480591
0.00482614
0.00484514
0.00486293
0.00487917
0.00489388
0.00490703
0.00491871
0.00492877
0.0049371
0.00494369
0.00494858
0.00495176
0.00495326
0.00495308
0.00495123
0.00494775
0.00494265
0.00493597
0.00492776
0.00491807
0.00490695
0.00489448
0.00488072
0.00486575
0.00484966
0.00483254
0.00481448
0.00479558
0.00477594
0.00475569
0.00473493
0.00471378
0.00469237
0.00467082
0.00464927
0.00462784
0.00460667
0.00458588
0.0045656
0.00454595
0.00452703
0.00450895
0.00449179
0.0044756
0.00446042
0.00444624
0.00443306
0.00442084
0.00440957
0.00439919
0.00438965
0.00438089
0.00437284
0.00436547
0.00435869
0.00435234
0.00434585
0.00433757
0.00432402
1.60185e-05
0.000130471
0.000266127
0.000383174
0.000479537
0.000558536
0.000623167
0.000676726
0.000721948
0.000761043
0.000795759
0.000827455
0.000857172
0.000885687
0.000913582
0.000941355
0.000969266
0.000997506
0.00102621
0.00105546
0.00108529
0.00111587
0.00114721
0.00117929
0.00121208
0.00124556
0.00127968
0.00131438
0.00134962
0.00138534
0.00142152
0.0014581
0.00149505
0.00153235
0.00156996
0.00160785
0.00164591
0.0016842
0.00172267
0.00176128
0.00180002
0.00183889
0.0018779
0.00191704
0.00195632
0.00199575
0.00203532
0.00207505
0.00211494
0.00215499
0.0021952
0.00223559
0.00227614
0.00231687
0.00235777
0.00239885
0.0024401
0.00248154
0.00252314
0.00256493
0.00260689
0.00264902
0.00269131
0.00273377
0.00277638
0.00281914
0.00286205
0.00290509
0.00294826
0.00299154
0.00303493
0.00307841
0.00312198
0.00316561
0.0032093
0.00325304
0.00329679
0.00334056
0.00338432
0.00342805
0.00347175
0.00351538
0.00355894
0.0036024
0.00364575
0.00368897
0.00373203
0.00377492
0.00381763
0.00386013
0.00390241
0.00394444
0.00398622
0.00402772
0.00406892
0.00410981
0.00415036
0.00419057
0.00423041
0.00426985
0.00430889
0.00434749
0.00438564
0.0044233
0.00446046
0.00449709
0.00453317
0.00456865
0.00460351
0.00463771
0.00467123
0.004704
0.00473601
0.00476719
0.00479751
0.00482691
0.00485535
0.00488277
0.00490912
0.00493435
0.0049584
0.00498122
0.00500283
0.00502315
0.00504203
0.00505945
0.00507533
0.00508964
0.00510233
0.00511316
0.00512216
0.00512937
0.00513478
0.00513841
0.00514025
0.00514031
0.00513861
0.00513515
0.00512997
0.0051231
0.00511459
0.00510448
0.00509284
0.00507974
0.00506525
0.00504944
0.00503242
0.00501426
0.00499508
0.00497498
0.00495408
0.00493248
0.00491033
0.00488775
0.00486488
0.00484186
0.00481883
0.00479593
0.00477333
0.00475115
0.00472954
0.00470864
0.00468857
0.00466944
0.00465135
0.00463437
0.00461855
0.00460391
0.00459047
0.00457823
0.00456716
0.00455724
0.00454845
0.00454075
0.00453414
0.00452857
0.00452395
0.00451982
0.00451492
0.00450686
1.68174e-05
0.000133524
0.000272741
0.000394472
0.000495749
0.000579792
0.000649264
0.000707325
0.000756649
0.000799426
0.000837412
0.000872002
0.000904298
0.000935067
0.000964859
0.000994212
0.00102351
0.00105302
0.00108289
0.00111326
0.00114423
0.00117588
0.00120817
0.00124107
0.00127456
0.0013086
0.00134317
0.00137821
0.0014137
0.00144958
0.00148583
0.0015224
0.00155927
0.00159642
0.00163382
0.00167151
0.00170947
0.00174764
0.0017859
0.00182421
0.00186258
0.00190102
0.00193952
0.00197811
0.0020168
0.0020556
0.00209451
0.00213355
0.00217273
0.00221204
0.0022515
0.00229112
0.0023309
0.00237085
0.00241097
0.00245127
0.00249176
0.00253244
0.00257331
0.00261438
0.00265565
0.00269711
0.00273878
0.00278064
0.0028227
0.00286495
0.00290739
0.00295002
0.00299281
0.00303578
0.00307891
0.00312218
0.00316559
0.00320913
0.00325278
0.00329652
0.00334035
0.00338424
0.00342818
0.00347215
0.00351614
0.00356011
0.00360407
0.00364797
0.00369181
0.00373557
0.00377922
0.00382275
0.00386614
0.00390937
0.00395241
0.00399526
0.00403788
0.00408028
0.00412241
0.00416428
0.00420586
0.00424713
0.00428808
0.00432869
0.00436894
0.0044088
0.00444827
0.00448732
0.00452592
0.00456406
0.00460171
0.00463885
0.00467543
0.00471144
0.00474684
0.00478158
0.00481563
0.00484894
0.00488147
0.00491317
0.00494398
0.00497385
0.00500272
0.00503054
0.00505725
0.00508278
0.00510711
0.00513016
0.00515184
0.00517216
0.00519095
0.00520815
0.00522376
0.00523734
0.005249
0.00525879
0.00526671
0.00527275
0.0052769
0.00527916
0.00527952
0.005278
0.0052746
0.00526936
0.0052623
0.00525347
0.00524293
0.00523073
0.00521694
0.00520164
0.00518491
0.00516685
0.00514755
0.00512712
0.00510568
0.00508335
0.00506026
0.00503655
0.00501236
0.00498785
0.00496317
0.00493848
0.00491395
0.00488975
0.00486604
0.00484297
0.00482071
0.00479941
0.00477919
0.00476017
0.00474245
0.0047261
0.00471117
0.0046977
0.00468572
0.00467522
0.00466623
0.00465874
0.00465278
0.00464836
0.00464541
0.0046436
0.00464195
0.00463891
1.7377e-05
0.000135374
0.000276946
0.000402276
0.000507617
0.000595979
0.000669717
0.000731819
0.000784865
0.000831016
0.000871932
0.000908885
0.000943165
0.000975668
0.00100711
0.00103809
0.00106882
0.00109954
0.00113043
0.00116161
0.00119318
0.00122517
0.0012576
0.00129049
0.00132383
0.00135761
0.00139179
0.00142635
0.00146125
0.00149644
0.0015319
0.00156762
0.00160356
0.00163971
0.00167601
0.00171252
0.00174926
0.00178627
0.00182341
0.00186057
0.00189773
0.00193484
0.00197194
0.00200905
0.00204623
0.00208347
0.00212082
0.00215827
0.00219584
0.00223355
0.00227141
0.00230943
0.00234763
0.00238603
0.00242463
0.00246344
0.00250248
0.00254175
0.00258128
0.00262105
0.00266109
0.00270139
0.00274195