/*--------------------------------*- C++ -*----------------------------------*\
  =========                 |
  \\      /  F ield         | OpenFOAM: The Open Source CFD Toolbox
   \\    /   O peration     | Website:  https://openfoam.org
    \\  /    A nd           | Version:  7
     \\/     M anipulation  |
\*---------------------------------------------------------------------------*/
FoamFile
{
    version     2.0;
    format      ascii;
    class       volScalarField;
    location    "200";
    object      p;
}
// * * * * * * * * * * * * * * * * * * * * * * * * * * * * * * * * * * * * * //

dimensions      [0 2 -2 0 0 0 0];

internalField   nonuniform List<scalar> 
12225
(
-2.14777
-4.33635
-5.43631
-5.75692
-5.93817
-6.10717
-6.2387
-6.33384
-6.41045
-6.47784
-6.53785
-6.59273
-6.64252
-6.68886
-6.73201
-6.76723
-6.81091
-6.77795
-5.31121
-6.07965
-6.24007
-6.14778
-6.13522
-6.20305
-6.28058
-6.34631
-6.40593
-6.46337
-6.51799
-6.5689
-6.61679
-6.66183
-6.70497
-6.74248
-6.78575
-6.81299
-5.71235
-5.69734
-5.82465
-5.90297
-5.99783
-6.11797
-6.22517
-6.31
-6.38182
-6.44717
-6.50729
-6.56222
-6.61338
-6.66107
-6.70679
-6.74819
-6.79538
-6.83609
-5.59041
-5.5335
-5.77505
-5.93332
-6.03502
-6.14119
-6.23886
-6.31888
-6.38762
-6.4507
-6.50928
-6.56331
-6.61395
-6.66153
-6.70745
-6.75093
-6.79825
-6.84548
-5.58007
-5.6045
-5.83252
-5.97403
-6.0576
-6.14962
-6.24081
-6.3185
-6.38604
-6.44825
-6.50637
-6.56037
-6.61119
-6.65931
-6.706
-6.75134
-6.79916
-6.84928
-5.63803
-5.68697
-5.8612
-5.98505
-6.06653
-6.15431
-6.24232
-6.3188
-6.38575
-6.44744
-6.50522
-6.55917
-6.61009
-6.65858
-6.70575
-6.75209
-6.80004
-6.85033
-5.69836
-5.7426
-5.87773
-5.99401
-6.07771
-6.1618
-6.24568
-6.32028
-6.38634
-6.44733
-6.5046
-6.55834
-6.60921
-6.65788
-6.70527
-6.75202
-6.79967
-6.84891
-5.75188
-5.78952
-5.89944
-6.00768
-6.09062
-6.17018
-6.24955
-6.32199
-6.38701
-6.4472
-6.50387
-6.5573
-6.60804
-6.65672
-6.70411
-6.75083
-6.79783
-6.84548
-5.8016
-5.83473
-5.9256
-6.02351
-6.10353
-6.17885
-6.25397
-6.32404
-6.38781
-6.44708
-6.50303
-6.55603
-6.60649
-6.65499
-6.70214
-6.74845
-6.79451
-6.84039
-5.84863
-5.87787
-5.95335
-6.04051
-6.11665
-6.18814
-6.2592
-6.32665
-6.38892
-6.44709
-6.50218
-6.55457
-6.60458
-6.65268
-6.69935
-6.74496
-6.78987
-6.83396
-5.89292
-5.9184
-5.98155
-6.05867
-6.13029
-6.19806
-6.26522
-6.32986
-6.39039
-6.44731
-6.50139
-6.553
-6.60237
-6.64986
-6.69583
-6.74054
-6.78418
-6.82652
-5.93091
-5.95324
-6.0074
-6.07616
-6.14323
-6.20755
-6.27132
-6.33331
-6.39208
-6.4477
-6.50074
-6.55147
-6.6001
-6.64687
-6.69204
-6.73578
-6.7782
-6.81903
-5.96599
-5.9857
-6.03248
-6.0938
-6.15624
-6.21717
-6.27772
-6.33708
-6.394
-6.44825
-6.50014
-6.5499
-6.59767
-6.64361
-6.68788
-6.73059
-6.77179
-6.81121
-6.00274
-6.01992
-6.05989
-6.11385
-6.17112
-6.22823
-6.28529
-6.34172
-6.39643
-6.449
-6.49949
-6.54803
-6.5947
-6.63956
-6.68271
-6.72418
-6.764
-6.80195
-6.03991
-6.05468
-6.08864
-6.13568
-6.18751
-6.24044
-6.29385
-6.34711
-6.39932
-6.44989
-6.4987
-6.54576
-6.59105
-6.63459
-6.67639
-6.71646
-6.75478
-6.7912
-6.07552
-6.08814
-6.11704
-6.15796
-6.20448
-6.25315
-6.30285
-6.35286
-6.40236
-6.45069
-6.49758
-6.54291
-6.5866
-6.6286
-6.66888
-6.7074
-6.74417
-6.77905
-6.10668
-6.11755
-6.14248
-6.1784
-6.22025
-6.26495
-6.31116
-6.35807
-6.40486
-6.45087
-6.49571
-6.53917
-6.58111
-6.62144
-6.66009
-6.69703
-6.73223
-6.76563
-6.12903
-6.13868
-6.16092
-6.19338
-6.23181
-6.27343
-6.31686
-6.36121
-6.40566
-6.44957
-6.49248
-6.53415
-6.57438
-6.61307
-6.65013
-6.68554
-6.71926
-6.75128
-6.13567
-6.14483
-6.16604
-6.19718
-6.23427
-6.27455
-6.31659
-6.35953
-6.4026
-6.44513
-6.48667
-6.52696
-6.56583
-6.60317
-6.63892
-6.67304
-6.70553
-6.73641
-6.11944
-6.12921
-6.15181
-6.18489
-6.22389
-6.26558
-6.30854
-6.35206
-6.39543
-6.438
-6.47935
-6.51927
-6.55764
-6.5944
-6.62948
-6.66291
-6.69468
-6.72486
-6.09251
-6.10331
-6.12858
-6.1656
-6.20838
-6.25289
-6.29798
-6.34321
-6.38785
-6.4312
-6.47297
-6.51308
-6.55146
-6.58808
-6.62295
-6.65608
-6.68753
-6.71737
-6.05725
-6.06907
-6.09842
-6.14201
-6.19029
-6.23828
-6.28609
-6.33382
-6.38037
-6.42496
-6.46749
-6.50805
-6.54668
-6.58336
-6.61817
-6.65116
-6.68242
-6.71205
-6.01667
-6.02857
-6.06302
-6.1163
-6.17185
-6.22381
-6.2747
-6.32514
-6.37366
-6.41954
-6.46297
-6.50417
-6.54317
-6.58004
-6.61488
-6.64785
-6.67903
-6.70856
-5.97294
-5.98392
-6.0257
-6.09012
-6.15231
-6.20899
-6.26462
-6.31848
-6.36875
-6.41557
-6.4597
-6.50138
-6.54065
-6.57762
-6.61247
-6.64538
-6.67647
-6.70588
-5.926
-5.93151
-5.99417
-6.07238
-6.13433
-6.19259
-6.25373
-6.3121
-6.36462
-6.41268
-6.4577
-6.49997
-6.53952
-6.57657
-6.61139
-6.64422
-6.67523
-6.70459
-5.88268
-5.84636
-5.9559
-6.06688
-6.12913
-6.18442
-6.24664
-6.30638
-6.35961
-6.40834
-6.45406
-6.49687
-6.53674
-6.57398
-6.60891
-6.64179
-6.67282
-6.70219
-5.8969
-5.73796
-5.86688
-6.02096
-6.11108
-6.18245
-6.25138
-6.3123
-6.3651
-6.41339
-6.45868
-6.50094
-6.54024
-6.57691
-6.61129
-6.64368
-6.67429
-6.70338
-6.02009
-5.83972
-5.85389
-5.92603
-6.0144
-6.11363
-6.20433
-6.27811
-6.33982
-6.39496
-6.44528
-6.49106
-6.53287
-6.57137
-6.60706
-6.64041
-6.67185
-6.70201
-5.72747
-6.31856
-6.4074
-6.28315
-6.22882
-6.25599
-6.30297
-6.34622
-6.38778
-6.42997
-6.47147
-6.51081
-6.54777
-6.58251
-6.61508
-6.64564
-6.6744
-6.70313
-2.73814
-4.50145
-5.50615
-5.8053
-5.95447
-6.09811
-6.21215
-6.29312
-6.35735
-6.41422
-6.46548
-6.51153
-6.55321
-6.59145
-6.62675
-6.65891
-6.68776
-6.71156
-7.61007
-7.61012
-7.61064
-7.61175
-7.61333
-7.61531
-7.61769
-7.62045
-7.62361
-7.62719
-7.63123
-7.63576
-7.64084
-7.6465
-7.6528
-7.65978
-7.66752
-7.6761
-7.68554
-7.69591
-7.7073
-7.71948
-7.73219
-7.74544
-7.75877
-7.77152
-7.78432
-7.79991
-7.81939
-7.84076
-7.86286
-7.88546
-7.90829
-7.93259
-7.9569
-7.97872
-7.99878
-8.02063
-8.04515
-8.07057
-8.09684
-8.12377
-8.1512
-8.17904
-8.20716
-8.2355
-8.26394
-8.29244
-8.32088
-8.34921
-8.37731
-8.40515
-8.43258
-8.45955
-8.48593
-8.51165
-8.53657
-8.56059
-8.58357
-8.60541
-8.62594
-8.64505
-8.66255
-8.67832
-8.69217
-8.70396
-8.71348
-8.72058
-8.72503
-8.72668
-8.72528
-8.72067
-8.7126
-8.7009
-8.68531
-8.66565
-8.64166
-8.61314
-8.57983
-8.54154
-8.49801
-8.44906
-8.39441
-8.3339
-8.26725
-8.19431
-8.11482
-8.02863
-7.93555
-7.83552
-7.72855
-7.61465
-7.4936
-7.36491
-7.22816
-7.0834
-6.93074
-6.77021
-6.60183
-6.42564
-6.24168
-6.05
-5.85069
-5.64389
-5.42974
-5.20843
-4.98018
-4.74523
-4.50386
-4.25636
-4.00307
-3.74434
-3.48056
-3.21212
-2.93947
-2.66303
-2.3833
-2.10073
-1.81581
-1.52898
-1.24074
-0.951585
-0.662028
-0.372573
-0.0836992
0.204158
0.490564
0.775092
1.05735
1.33694
1.61353
1.88678
2.15641
2.42215
2.68379
2.94114
3.19407
3.44249
3.68637
3.92565
4.1603
4.39036
4.6159
4.83708
5.05404
5.26699
5.47613
5.68172
5.88404
6.08338
6.28009
6.4745
6.66701
6.858
7.04791
7.23716
7.42622
7.61557
7.80569
7.99706
8.19019
8.38556
8.58364
8.78488
8.9897
9.19859
9.4118
9.62906
9.85009
10.075
10.3037
10.536
10.7714
11.0092
11.2489
11.4895
11.7311
11.9732
12.2282
12.4856
-7.60782
-7.60836
-7.60917
-7.61006
-7.61088
-7.61176
-7.61295
-7.61457
-7.61669
-7.61935
-7.62255
-7.6263
-7.63063
-7.63554
-7.64105
-7.64721
-7.65402
-7.66149
-7.66958
-7.67834
-7.68762
-7.69729
-7.70774
-7.71905
-7.73111
-7.74447
-7.76065
-7.77844
-7.7948
-7.8102
-7.82608
-7.84298
-7.86245
-7.88395
-7.90719
-7.93365
-7.96351
-7.99326
-8.0205
-8.04738
-8.07435
-8.10158
-8.12909
-8.15686
-8.18483
-8.21296
-8.24118
-8.26943
-8.29763
-8.32571
-8.35359
-8.38121
-8.40845
-8.43525
-8.46149
-8.48709
-8.51192
-8.53588
-8.55885
-8.58071
-8.6013
-8.62051
-8.63816
-8.65413
-8.66822
-8.68029
-8.69016
-8.69764
-8.70254
-8.70468
-8.70385
-8.69985
-8.69247
-8.6815
-8.66671
-8.64792
-8.62486
-8.59733
-8.5651
-8.52796
-8.48566
-8.438
-8.38474
-8.3257
-8.26064
-8.18936
-8.11167
-8.02735
-7.93624
-7.83817
-7.73299
-7.62046
-7.50034
-7.3726
-7.23735
-7.09449
-6.9439
-6.78553
-6.61935
-6.44537
-6.26362
-6.07417
-5.87709
-5.6725
-5.46055
-5.24141
-5.01528
-4.78241
-4.54306
-4.29751
-4.04609
-3.78916
-3.52707
-3.26024
-2.98907
-2.71401
-2.43552
-2.15407
-1.87013
-1.58416
-1.29664
-1.00809
-0.718989
-0.429845
-0.141148
0.146667
0.433163
0.717917
1.00052
1.28059
1.55777
1.83173
2.10217
2.36882
2.63145
2.88987
3.14394
3.39356
3.63866
3.87921
4.11513
4.34647
4.57329
4.79573
5.01393
5.22807
5.43836
5.64504
5.84838
6.04868
6.24625
6.44145
6.63463
6.8262
7.01656
7.20616
7.39543
7.58485
7.77489
7.96605
8.1588
8.35364
8.5511
8.75157
8.95544
9.16313
9.37486
9.59042
9.8097
10.0328
10.2598
10.4904
10.7242
10.9606
11.1992
11.4391
11.6812
11.9242
12.1825
12.4324
-7.60178
-7.60343
-7.60574
-7.60752
-7.60859
-7.60942
-7.61036
-7.61163
-7.61337
-7.61563
-7.61844
-7.62183
-7.6258
-7.63037
-7.63557
-7.64141
-7.64792
-7.65511
-7.66294
-7.67142
-7.6805
-7.6901
-7.70034
-7.71142
-7.72361
-7.73745
-7.75335
-7.77085
-7.78869
-7.80658
-7.82481
-7.84353
-7.86291
-7.8829
-7.90374
-7.92648
-7.95133
-7.97727
-8.00326
-8.02948
-8.05597
-8.08275
-8.10978
-8.13704
-8.16449
-8.19207
-8.21974
-8.24744
-8.2751
-8.30266
-8.33005
-8.35719
-8.38398
-8.41036
-8.43622
-8.46147
-8.48599
-8.50969
-8.53243
-8.5541
-8.57456
-8.59367
-8.61129
-8.62727
-8.64143
-8.65363
-8.66368
-8.67141
-8.67663
-8.67915
-8.67876
-8.67528
-8.66849
-8.65818
-8.64414
-8.62616
-8.60401
-8.57746
-8.5463
-8.5103
-8.46923
-8.42289
-8.37104
-8.31349
-8.25
-8.1804
-8.10446
-8.02201
-7.93285
-7.83684
-7.73379
-7.62347
-7.50566
-7.38026
-7.24734
-7.10684
-6.95868
-6.8028
-6.63916
-6.46776
-6.28862
-6.10179
-5.90733
-5.70537
-5.49603
-5.27948
-5.05592
-4.82557
-4.58868
-4.34554
-4.09646
-3.84177
-3.58184
-3.31706
-3.04784
-2.77461
-2.49782
-2.21794
-1.93542
-1.65074
-1.36437
-1.07683
-0.788595
-0.500149
-0.211983
0.0754423
0.361691
0.646353
0.929009
1.20928
1.4868
1.76124
2.03228
2.29965
2.5631
2.82244
3.0775
3.32819
3.57442
3.81613
4.05326
4.28581
4.51387
4.73751
4.95691
5.17219
5.38358
5.59129
5.79558
5.99673
6.19507
6.3909
6.5846
6.77654
6.96712
7.15677
7.34593
7.53503
7.72457
7.91504
8.10689
8.30061
8.49672
8.69571
8.89796
9.10384
9.31355
9.52707
9.74437
9.96555
10.1906
10.4194
10.6515
10.8865
11.1241
11.3637
11.6065
11.8505
12.1115
12.3476
-7.59265
-7.59555
-7.59996
-7.60335
-7.60547
-7.60697
-7.60829
-7.60973
-7.61145
-7.61358
-7.6162
-7.61935
-7.62307
-7.62738
-7.63228
-7.63782
-7.644
-7.65085
-7.65838
-7.66658
-7.67546
-7.68504
-7.69534
-7.70647
-7.71859
-7.73196
-7.74677
-7.76293
-7.78014
-7.79823
-7.81717
-7.83694
-7.8574
-7.8784
-7.89996
-7.92237
-7.94579
-7.97006
-7.9949
-8.02024
-8.04601
-8.07215
-8.09861
-8.12533
-8.15225
-8.17934
-8.20653
-8.23377
-8.261
-8.28815
-8.31515
-8.34193
-8.36841
-8.39449
-8.4201
-8.44512
-8.46946
-8.49301
-8.51565
-8.53726
-8.5577
-8.57683
-8.59452
-8.61061
-8.62494
-8.63735
-8.64766
-8.65571
-8.66129
-8.66422
-8.6643
-8.66135
-8.65514
-8.64547
-8.63213
-8.6149
-8.59356
-8.56788
-8.53765
-8.50264
-8.46263
-8.4174
-8.36672
-8.31039
-8.24818
-8.1799
-8.10535
-8.02432
-7.93662
-7.8421
-7.74058
-7.63185
-7.51575
-7.39218
-7.26109
-7.12245
-6.97616
-6.82218
-6.66047
-6.49102
-6.31384
-6.12897
-5.93648
-5.73647
-5.52908
-5.31446
-5.0928
-4.86431
-4.62924
-4.38786
-4.14049
-3.88744
-3.62908
-3.36579
-3.09797
-2.82605
-2.55048
-2.27171
-1.99019
-1.7064
-1.42082
-1.13396
-0.846318
-0.558342
-0.270503
0.0167074
0.302851
0.587518
0.870301
1.15081
1.42868
1.70356
1.97515
2.24316
2.50734
2.76748
3.02343
3.27506
3.52228
3.76499
4.00317
4.23679
4.46594
4.69069
4.91117
5.12751
5.33994
5.54864
5.75387
5.95589
6.15502
6.35156
6.54588
6.73832
6.92928
7.11917
7.30842
7.49746
7.68674
7.87674
8.06797
8.26086
8.45589
8.6535
8.85408
9.05798
9.26549
9.4767
9.69172
9.91064
10.1334
10.36
10.59
10.8232
11.0592
11.2976
11.5395
11.7823
12.0409
12.2624
-7.58281
-7.58699
-7.59367
-7.5989
-7.60233
-7.60481
-7.60688
-7.60883
-7.61089
-7.61324
-7.61598
-7.6192
-7.62295
-7.62728
-7.63219
-7.63774
-7.64393
-7.65079
-7.65833
-7.6666
-7.6756
-7.68537
-7.69597
-7.70747
-7.71994
-7.73347
-7.74812
-7.76389
-7.78066
-7.7984
-7.81706
-7.83664
-7.85704
-7.87818
-7.89998
-7.92246
-7.94561
-7.96936
-7.99365
-8.01842
-8.04363
-8.06924
-8.09519
-8.12143
-8.1479
-8.17457
-8.20135
-8.22822
-8.25509
-8.28192
-8.30862
-8.33513
-8.36136
-8.38723
-8.41265
-8.43753
-8.46176
-8.48523
-8.50782
-8.52941
-8.54988
-8.56907
-8.58686
-8.60309
-8.61759
-8.63021
-8.64078
-8.64911
-8.65502
-8.65832
-8.65882
-8.65632
-8.65061
-8.64148
-8.62871
-8.6121
-8.59142
-8.56645
-8.53697
-8.50275
-8.46357
-8.4192
-8.36943
-8.31404
-8.25281
-8.18554
-8.11203
-8.03206
-7.94546
-7.85205
-7.75167
-7.64414
-7.5293
-7.40703
-7.27727
-7.13993
-6.99495
-6.84228
-6.68188
-6.51372
-6.33783
-6.15424
-5.96302
-5.76427
-5.5581
-5.34468
-5.12419
-4.89682
-4.66284
-4.42251
-4.17612
-3.92401
-3.66653
-3.40405
-3.13698
-2.86575
-2.5908
-2.31257
-2.03152
-1.74814
-1.4629
-1.17631
-0.888879
-0.601057
-0.313291
-0.0260754
0.260142
0.544943
0.827933
1.1087
1.3869
1.66216
1.93418
2.20266
2.46736
2.72807
2.98461
3.23686
3.48469
3.72804
3.96684
4.20112
4.43089
4.65629
4.87737
5.09432
5.30729
5.51653
5.72224
5.92472
6.12422
6.3211
6.51566
6.70831
6.89936
7.08925
7.27838
7.46721
7.65614
7.84568
8.03623
8.22829
8.42229
8.61868
8.81782
9.0201
9.22579
9.43509
9.64818
9.86518
10.0861
10.3108
10.5391
10.7706
11.0051
11.2421
11.4825
11.7229
11.9769
12.1852
-7.57422
-7.57961
-7.58825
-7.59517
-7.59992
-7.60349
-7.60643
-7.60908
-7.6117
-7.61448
-7.61758
-7.62109
-7.6251
-7.62965
-7.63479
-7.64056
-7.64699
-7.6541
-7.66192
-7.67047
-7.67979
-7.68991
-7.70087
-7.71275
-7.72557
-7.73939
-7.75422
-7.77003
-7.78678
-7.80443
-7.82292
-7.84223
-7.86233
-7.88316
-7.90469
-7.92687
-7.94967
-7.97304
-7.99692
-8.02128
-8.04607
-8.07125
-8.09679
-8.12264
-8.14875
-8.17506
-8.20153
-8.2281
-8.25471
-8.28129
-8.30777
-8.33409
-8.36017
-8.38591
-8.41123
-8.43604
-8.46023
-8.48369
-8.5063
-8.52795
-8.5485
-8.56781
-8.58574
-8.60215
-8.61686
-8.62972
-8.64055
-8.64918
-8.65542
-8.65909
-8.65998
-8.65789
-8.65263
-8.64398
-8.63172
-8.61565
-8.59553
-8.57115
-8.54228
-8.50871
-8.47019
-8.42652
-8.37747
-8.32282
-8.26235
-8.19587
-8.12315
-8.04399
-7.95822
-7.86565
-7.76612
-7.65946
-7.54551
-7.42415
-7.2953
-7.15887
-7.01478
-6.86297
-6.70342
-6.5361
-6.36102
-6.17823
-5.98777
-5.78976
-5.5843
-5.37156
-5.1517
-4.92493
-4.69151
-4.45168
-4.20576
-3.95407
-3.69695
-3.43479
-3.168
-2.89699
-2.62221
-2.3441
-2.06313
-1.77977
-1.49452
-1.2079
-0.92039
-0.63247
-0.344578
-0.0571874
0.229237
0.514282
0.797537
1.07861
1.35711
1.63271
1.90506
2.17389
2.43894
2.70001
2.9569
3.20949
3.45764
3.70128
3.94034
4.17486
4.40487
4.63045
4.85169
5.06876
5.2818
5.49107
5.69676
5.89917
6.09855
6.29524
6.48955
6.68186
6.87252
7.06194
7.25053
7.43872
7.62693
7.81563
8.00526
8.19629
8.38916
8.58431
8.78213
8.98298
9.18715
9.39491
9.60647
9.82196
10.0414
10.2648
10.4918
10.7221
10.9555
11.1914
11.4301
11.6679
11.9175
12.1144
-7.56828
-7.57466
-7.58478
-7.59307
-7.599
-7.60358
-7.6074
-7.61081
-7.61407
-7.6174
-7.62097
-7.6249
-7.62929
-7.6342
-7.63969
-7.6458
-7.65257
-7.66003
-7.66821
-7.67713
-7.68682
-7.69732
-7.70865
-7.72085
-7.73395
-7.74797
-7.76292
-7.77879
-7.79553
-7.81312
-7.83151
-7.85067
-7.87056
-7.89116
-7.91242
-7.93431
-7.9568
-7.97985
-8.0034
-8.02743
-8.0519
-8.07677
-8.102
-8.12756
-8.15339
-8.17945
-8.20569
-8.23206
-8.25849
-8.28492
-8.31128
-8.3375
-8.36351
-8.38921
-8.41452
-8.43934
-8.46357
-8.4871
-8.5098
-8.53157
-8.55226
-8.57175
-8.58988
-8.6065
-8.62145
-8.63458
-8.6457
-8.65463
-8.6612
-8.66522
-8.66648
-8.66478
-8.65993
-8.6517
-8.63989
-8.62427
-8.60463
-8.58074
-8.55238
-8.51932
-8.48134
-8.43821
-8.38972
-8.33563
-8.27574
-8.20983
-8.1377
-8.05914
-7.97396
-7.88198
-7.78305
-7.67698
-7.56364
-7.44289
-7.31463
-7.17876
-7.03522
-6.88394
-6.72489
-6.55804
-6.38341
-6.20103
-6.01096
-5.8133
-5.60817
-5.39571
-5.17609
-4.94953
-4.71627
-4.47657
-4.23072
-3.97907
-3.72195
-3.45975
-3.19288
-2.92176
-2.64682
-2.36852
-2.08733
-1.80375
-1.51825
-1.23136
-0.943574
-0.655374
-0.36721
-0.0795289
0.207202
0.492564
0.776134
1.05753
1.33634
1.61224
1.88488
2.15398
2.41928
2.68057
2.93767
3.19041
3.43869
3.6824
3.92151
4.15601
4.38598
4.61145
4.83256
5.04942
5.26223
5.47117
5.6765
5.87845
6.07734
6.27344
6.46712
6.65871
6.84859
7.03714
7.2248
7.41197
7.5991
7.78664
7.97507
8.16481
8.35636
8.55013
8.74654
8.94595
9.14869
9.35504
9.56525
9.77948
9.99777
10.22
10.4461
10.6756
10.9081
11.143
11.3803
11.6157
11.8612
12.0488
-7.56575
-7.57281
-7.58389
-7.59317
-7.60002
-7.60547
-7.61008
-7.61419
-7.61808
-7.62198
-7.62606
-7.63047
-7.63529
-7.64061
-7.64649
-7.65298
-7.66012
-7.66795
-7.67649
-7.68577
-7.69582
-7.70665
-7.7183
-7.73077
-7.7441
-7.75828
-7.77332
-7.78921
-7.80592
-7.82344
-7.84172
-7.86075
-7.88047
-7.90088
-7.92194
-7.94361
-7.96586
-7.98867
-8.01198
-8.03578
-8.06002
-8.08468
-8.10971
-8.13508
-8.16074
-8.18665
-8.21277
-8.23903
-8.26537
-8.29175
-8.31808
-8.3443
-8.37033
-8.39607
-8.42145
-8.44637
-8.47071
-8.49437
-8.51724
-8.53918
-8.56007
-8.57977
-8.59813
-8.61501
-8.63022
-8.64363
-8.65504
-8.66429
-8.67118
-8.67553
-8.67713
-8.67578
-8.67129
-8.66343
-8.652
-8.63677
-8.61752
-8.59402
-8.56606
-8.53341
-8.49584
-8.45312
-8.40503
-8.35136
-8.29187
-8.22637
-8.15464
-8.07648
-7.99169
-7.90009
-7.80153
-7.69583
-7.58284
-7.46243
-7.33449
-7.19892
-7.05565
-6.90461
-6.74577
-6.5791
-6.40462
-6.22236
-6.03238
-5.83476
-5.62964
-5.41715
-5.19747
-4.97081
-4.73741
-4.49753
-4.25147
-3.99957
-3.74217
-3.47966
-3.21245
-2.94096
-2.66563
-2.38692
-2.10532
-1.82131
-1.53541
-1.2481
-0.959903
-0.671308
-0.382779
-0.0947473
0.192339
0.478041
0.761945
1.04364
1.32275
1.5989
1.87176
2.14106
2.40652
2.66793
2.9251
3.17786
3.4261
3.66973
3.90873
4.14307
4.37281
4.598
4.81876
5.03522
5.24757
5.45598
5.66072
5.86201
6.06017
6.25547
6.44828
6.63892
6.82778
7.01525
7.20175
7.38769
7.57353
7.75972
7.94674
8.13504
8.32509
8.51735
8.71224
8.91016
9.11144
9.31641
9.52532
9.73838
9.9556
10.177
10.4022
10.6309
10.8627
11.0967
11.3327
11.5657
11.808
11.9881
-7.56686
-7.57427
-7.58581
-7.59567
-7.60317
-7.60927
-7.61451
-7.61922
-7.62367
-7.62809
-7.63265
-7.63749
-7.64273
-7.64844
-7.65469
-7.66154
-7.66902
-7.67718
-7.68603
-7.69562
-7.70595
-7.71705
-7.72893
-7.74162
-7.75511
-7.76941
-7.78451
-7.80042
-7.81711
-7.83456
-7.85275
-7.87166
-7.89125
-7.91152
-7.93242
-7.95393
-7.97603
-7.99867
-8.02183
-8.04548
-8.06959
-8.09412
-8.11905
-8.14433
-8.16992
-8.19578
-8.22186
-8.24811
-8.27447
-8.30088
-8.32727
-8.35357
-8.37969
-8.40556
-8.43108
-8.45615
-8.48067
-8.50453
-8.5276
-8.54977
-8.57089
-8.59084
-8.60945
-8.62659
-8.64209
-8.65577
-8.66748
-8.67701
-8.6842
-8.68885
-8.69075
-8.68972
-8.68553
-8.67798
-8.66685
-8.65192
-8.63298
-8.60978
-8.58212
-8.54976
-8.51247
-8.47003
-8.42222
-8.36881
-8.30958
-8.24433
-8.17283
-8.09489
-8.01031
-7.91891
-7.82052
-7.71499
-7.60214
-7.48186
-7.35402
-7.21852
-7.07529
-6.92427
-6.7654
-6.59867
-6.4241
-6.24171
-6.05157
-5.85376
-5.6484
-5.43564
-5.21565
-4.98865
-4.75487
-4.51458
-4.26808
-4.0157
-3.75782
-3.49479
-3.22705
-2.955
-2.67912
-2.39984
-2.11769
-1.83314
-1.54671
-1.25891
-0.970223
-0.681176
-0.392242
-0.10384
0.183597
0.469623
0.75383
1.03579
1.31512
1.59143
1.86443
2.13381
2.39933
2.66074
2.91784
3.17049
3.41854
3.66195
3.90064
4.13465
4.36397
4.5887
4.80893
5.02481
5.23648
5.44419
5.64812
5.84859
6.04582
6.24017
6.43193
6.62149
6.80918
6.99545
7.18066
7.36527
7.54972
7.73448
7.92
8.10679
8.2953
8.48601
8.67937
8.87579
9.07565
9.27929
9.487
9.69895
9.91523
10.1358
10.3603
10.5884
10.8196
11.0527
11.2875
11.5185
11.758
11.9323
-7.57145
-7.57892
-7.59046
-7.60051
-7.60836
-7.61488
-7.62057
-7.62573
-7.63061
-7.63544
-7.64039
-7.6456
-7.65118
-7.65722
-7.66378
-7.67091
-7.67867
-7.68708
-7.69618
-7.70599
-7.71653
-7.72782
-7.73986
-7.75268
-7.76627
-7.78064
-7.79578
-7.8117
-7.82836
-7.84576
-7.86388
-7.88271
-7.90221
-7.92238
-7.94319
-7.96461
-7.98661
-8.00917
-8.03225
-8.05584
-8.0799
-8.1044
-8.12931
-8.15459
-8.18019
-8.20609
-8.23223
-8.25856
-8.28501
-8.31153
-8.33805
-8.3645
-8.39079
-8.41684
-8.44255
-8.46783
-8.49257
-8.51666
-8.53997
-8.56238
-8.58376
-8.60396
-8.62283
-8.64023
-8.65599
-8.66994
-8.6819
-8.69169
-8.69914
-8.70403
-8.70619
-8.70539
-8.70144
-8.69411
-8.6832
-8.66849
-8.64975
-8.62675
-8.59927
-8.56709
-8.52996
-8.48768
-8.44001
-8.38673
-8.32762
-8.26246
-8.19105
-8.11318
-8.02865
-7.93727
-7.83891
-7.73336
-7.62048
-7.50014
-7.37221
-7.2366
-7.09323
-6.94202
-6.78294
-6.61596
-6.44111
-6.2584
-6.0679
-5.86971
-5.66392
-5.4507
-5.23022
-5.0027
-4.76836
-4.52749
-4.28038
-4.02738
-3.76884
-3.50516
-3.23674
-2.96402
-2.68746
-2.40753
-2.12473
-1.83958
-1.55257
-1.26421
-0.975024
-0.685516
-0.396173
-0.107412
0.180335
0.466639
0.751093
1.03326
1.31274
1.58916
1.8622
2.13157
2.397
2.65827
2.91517
3.16753
3.41525
3.65825
3.89647
4.12994
4.35866
4.58272
4.80222
5.0173
5.22812
5.43492
5.6379
5.83734
6.03351
6.22674
6.41734
6.60567
6.79211
6.97705
7.16091
7.34411
7.52712
7.71039
7.8944
8.07965
8.26663
8.45581
8.64767
8.84264
9.04114
9.24352
9.4501
9.66106
9.87649
10.0963
10.3202
10.5478
10.7784
11.0108
11.2444
11.4736
11.711
11.8809
-7.5791
-7.58637
-7.59753
-7.60742
-7.61533
-7.62203
-7.62796
-7.63339
-7.63856
-7.64367
-7.64889
-7.65437
-7.66019
-7.66646
-7.67323
-7.68057
-7.6885
-7.69708
-7.70633
-7.71628
-7.72694
-7.73834
-7.75047
-7.76336
-7.777
-7.7914
-7.80655
-7.82246
-7.8391
-7.85647
-7.87455
-7.89333
-7.91278
-7.93291
-7.95367
-7.97506
-7.99704
-8.01959
-8.04267
-8.06628
-8.09036
-8.11491
-8.13988
-8.16524
-8.19094
-8.21696
-8.24322
-8.26969
-8.2963
-8.323
-8.34971
-8.37635
-8.40285
-8.42912
-8.45506
-8.48057
-8.50555
-8.52987
-8.55342
-8.57608
-8.59769
-8.61813
-8.63723
-8.65486
-8.67083
-8.68499
-8.69715
-8.70714
-8.71477
-8.71984
-8.72215
-8.72151
-8.71769
-8.7105
-8.69971
-8.6851
-8.66645
-8.64353
-8.61612
-8.58399
-8.54691
-8.50465
-8.457
-8.40371
-8.34458
-8.27939
-8.20793
-8.12999
-8.04536
-7.95389
-7.85539
-7.74968
-7.63663
-7.51608
-7.38792
-7.25205
-7.10838
-6.95684
-6.7974
-6.63003
-6.45475
-6.27158
-6.08059
-5.88186
-5.67551
-5.4617
-5.2406
-5.01242
-4.77741
-4.53585
-4.28802
-4.03429
-3.77501
-3.51058
-3.24142
-2.96796
-2.69066
-2.41003
-2.12656
-1.84078
-1.55317
-1.26426
-0.974564
-0.684608
-0.394863
-0.105764
0.182254
0.46878
0.753406
1.03571
1.31524
1.59165
1.86461
2.13383
2.39904
2.65999
2.91651
3.1684
3.41559
3.65798
3.89554
4.12825
4.35617
4.57935
4.79793
5.01201
5.22181
5.4275
5.62936
5.82761
6.02257
6.21452
6.40383
6.59082
6.7759
6.95943
7.14186
7.3236
7.50513
7.6869
7.86941
8.05314
8.23862
8.42633
8.61677
8.81039
9.00763
9.20888
9.41445
9.62455
9.83926
10.0585
10.2819
10.5091
10.7392
10.971
11.2037
11.4314
11.6669
11.8336
-7.58924
-7.5961
-7.60655
-7.61599
-7.62371
-7.63036
-7.63632
-7.64184
-7.64713
-7.65237
-7.65774
-7.66334
-7.66929
-7.67567
-7.68254
-7.68996
-7.69798
-7.70663
-7.71594
-7.72594
-7.73664
-7.74807
-7.76023
-7.77313
-7.78679
-7.80119
-7.81634
-7.83224
-7.84887
-7.86622
-7.88429
-7.90307
-7.92252
-7.94265
-7.96342
-7.98482
-8.00683
-8.02943
-8.05258
-8.07627
-8.10045
-8.12512
-8.15022
-8.17572
-8.20158
-8.22776
-8.25421
-8.28087
-8.30768
-8.33458
-8.3615
-8.38837
-8.41509
-8.44158
-8.46774
-8.49347
-8.51866
-8.5432
-8.56695
-8.5898
-8.6116
-8.63221
-8.65148
-8.66925
-8.68536
-8.69964
-8.71191
-8.722
-8.7297
-8.73484
-8.73721
-8.7366
-8.73281
-8.72563
-8.71484
-8.70021
-8.68153
-8.65857
-8.6311
-8.5989
-8.56173
-8.51938
-8.47161
-8.4182
-8.35893
-8.29358
-8.22194
-8.14381
-8.05898
-7.96727
-7.86852
-7.76255
-7.6492
-7.52834
-7.39983
-7.26359
-7.11951
-6.96754
-6.80763
-6.63977
-6.46396
-6.28024
-6.08866
-5.88932
-5.68233
-5.46785
-5.24605
-5.01716
-4.78141
-4.5391
-4.29052
-4.03601
-3.77596
-3.51075
-3.2408
-2.96657
-2.68853
-2.40719
-2.12305
-1.83662
-1.54842
-1.25897
-0.968797
-0.67842
-0.388311
-0.0989351
0.189277
0.475918
0.760603
1.04289
1.32235
1.5986
1.87132
2.14022
2.40501
2.66547
2.92141
3.17265
3.41911
3.6607
3.8974
4.12918
4.3561
4.57823
4.79568
5.0086
5.21718
5.42163
5.62218
5.8191
6.0127
6.20326
6.39115
6.57671
6.76032
6.94238
7.12331
7.30356
7.48357
7.66384
7.84484
8.0271
8.21112
8.39743
8.58652
8.77889
8.97498
9.17522
9.3799
9.58927
9.80337
10.0221
10.2452
10.472
10.7018
10.933
11.165
11.3914
11.6255
11.79
-7.60122
-7.60751
-7.61703
-7.62578
-7.63309
-7.63947
-7.64527
-7.65069
-7.65591
-7.66113
-7.66647
-7.67206
-7.67799
-7.68435
-7.6912
-7.6986
-7.7066
-7.71522
-7.72451
-7.73449
-7.74517
-7.75658
-7.76873
-7.78162
-7.79526
-7.80966
-7.8248
-7.84069
-7.85733
-7.8747
-7.89278
-7.91157
-7.93105
-7.95121
-7.97202
-7.99348
-8.01556
-8.03824
-8.06151
-8.08534
-8.10968
-8.13451
-8.15978
-8.18547
-8.21151
-8.23789
-8.26452
-8.29138
-8.31839
-8.34549
-8.3726
-8.39966
-8.42656
-8.45323
-8.47956
-8.50545
-8.53079
-8.55546
-8.57933
-8.60227
-8.62415
-8.64483
-8.66414
-8.68195
-8.69807
-8.71234
-8.72459
-8.73464
-8.74229
-8.74736
-8.74964
-8.74893
-8.74503
-8.73772
-8.72679
-8.71201
-8.69317
-8.67004
-8.64239
-8.60999
-8.57262
-8.53005
-8.48206
-8.42841
-8.36889
-8.30328
-8.23137
-8.15295
-8.06781
-7.97579
-7.87671
-7.77039
-7.65667
-7.53541
-7.40649
-7.2698
-7.12527
-6.97282
-6.8124
-6.64401
-6.46764
-6.28333
-6.09114
-5.89116
-5.68351
-5.46833
-5.24583
-5.0162
-4.77971
-4.53662
-4.28726
-4.03197
-3.77114
-3.50514
-3.23442
-2.95943
-2.68067
-2.39863
-2.11385
-1.82682
-1.5381
-1.24818
-0.957619
-0.666904
-0.376543
-0.0870165
0.201246
0.487852
0.77243
1.05454
1.33375
1.60966
1.88195
2.15033
2.41451
2.67428
2.92942
3.17983
3.42535
3.66595
3.90157
4.13223
4.35795
4.57884
4.79499
5.00658
5.21377
5.4168
5.61591
5.81137
6.00347
6.19254
6.3789
6.56294
6.74502
6.92556
7.10496
7.28369
7.4622
7.64098
7.82053
8.00137
8.18402
8.36902
8.55689
8.74813
8.94322
9.14257
9.34653
9.55531
9.76898
9.98741
10.2103
10.4369
10.6664
10.8973
11.1286
11.354
11.587
11.7501
-7.61441
-7.62003
-7.62848
-7.63637
-7.64308
-7.649
-7.65443
-7.65955
-7.66453
-7.66953
-7.67468
-7.68009
-7.68587
-7.69208
-7.6988
-7.70608
-7.71397
-7.72249
-7.73169
-7.74159
-7.75221
-7.76356
-7.77566
-7.78851
-7.80212
-7.81649
-7.83161
-7.8475
-7.86412
-7.88149
-7.89959
-7.91841
-7.93793
-7.95814
-7.97902
-8.00057
-8.02277
-8.04559
-8.069
-8.09298
-8.11748
-8.14248
-8.16792
-8.19378
-8.21999
-8.24651
-8.2733
-8.3003
-8.32744
-8.35467
-8.3819
-8.40906
-8.43605
-8.46279
-8.48917
-8.51509
-8.54043
-8.56509
-8.58892
-8.61182
-8.63362
-8.6542
-8.67339
-8.69106
-8.70703
-8.72113
-8.73319
-8.74303
-8.75047
-8.7553
-8.75735
-8.75639
-8.75223
-8.74466
-8.73345
-8.7184
-8.69927
-8.67586
-8.64792
-8.61523
-8.57756
-8.53469
-8.48639
-8.43243
-8.37259
-8.30666
-8.23442
-8.15567
-8.0702
-7.97782
-7.87837
-7.77167
-7.65756
-7.53588
-7.40654
-7.2694
-7.1244
-6.97146
-6.81054
-6.64161
-6.46468
-6.27979
-6.08699
-5.88638
-5.67808
-5.46223
-5.23903
-5.0087
-4.77148
-4.52766
-4.27756
-4.02153
-3.75995
-3.49322
-3.22179
-2.94612
-2.66671
-2.38408
-2.09875
-1.81124
-1.5221
-1.23184
-0.940997
-0.65008
-0.359626
-0.0701161
0.218024
0.504416
0.78869
1.07043
1.34917
1.62455
1.8962
2.16384
2.4272
2.68605
2.94021
3.18955
3.43394
3.67334
3.90769
4.13702
4.36137
4.58083
4.79552
5.0056
5.21127
5.41275
5.61029
5.80416
5.99468
6.18215
6.36693
6.54938
6.7299
6.90887
7.08675
7.26396
7.441
7.61833
7.79649
7.97598
8.15736
8.34116
8.52793
8.71817
8.9124
9.11103
9.31441
9.52274
9.73611
9.95435
10.1771
10.4036
10.633
10.8636
11.0944
11.3191
11.5511
11.7136
-7.62828
-7.63317
-7.64049
-7.64739
-7.65333
-7.6586
-7.66346
-7.66808
-7.67261
-7.6772
-7.68198
-7.68707
-7.69255
-7.6985
-7.70498
-7.71204
-7.71973
-7.72809
-7.73714
-7.7469
-7.7574
-7.76864
-7.78065
-7.79342
-7.80696
-7.82128
-7.83636
-7.85221
-7.86883
-7.8862
-7.9043
-7.92315
-7.94272
-7.963
-7.98397
-8.00562
-8.02792
-8.05084
-8.07436
-8.09844
-8.12305
-8.14814
-8.17366
-8.19959
-8.22585
-8.25241
-8.27923
-8.30623
-8.33337
-8.36057
-8.38775
-8.41484
-8.44174
-8.46836
-8.4946
-8.52035
-8.5455
-8.56994
-8.59354
-8.61618
-8.6377
-8.65799
-8.67687
-8.69421
-8.70984
-8.72359
-8.73529
-8.74477
-8.75183
-8.75629
-8.75795
-8.75662
-8.75208
-8.74413
-8.73255
-8.71712
-8.69763
-8.67384
-8.64554
-8.61249
-8.57447
-8.53125
-8.4826
-8.42829
-8.36812
-8.30184
-8.22929
-8.15018
-8.06437
-7.97164
-7.87184
-7.76477
-7.65028
-7.52822
-7.39847
-7.26093
-7.11549
-6.9621
-6.80072
-6.63131
-6.45388
-6.26846
-6.07512
-5.87395
-5.66506
-5.44862
-5.22481
-4.99386
-4.756
-4.51155
-4.26081
-4.00414
-3.74193
-3.47459
-3.20257
-2.92636
-2.64644
-2.36337
-2.07764
-1.78982
-1.50042
-1.20998
-0.919024
-0.628108
-0.337762
-0.0484725
0.239341
0.525303
0.809049
1.09018
1.36824
1.64284
1.91363
2.1803
2.44261
2.70032
2.95328
3.20133
3.44439
3.68238
3.91529
4.14311
4.36592
4.58378
4.79686
5.0053
5.20931
5.40912
5.605
5.7972
5.98606
6.17188
6.35504
6.53588
6.71482
6.89225
7.06861
7.24436
7.41997
7.59594
7.77279
7.95106
8.13129
8.31403
8.49985
8.68927
8.88279
9.08086
9.28382
9.49188
9.70508
9.92327
10.146
10.3726
10.6019
10.8323
11.0628
11.287
11.5181
11.6807
-7.64294
-7.64712
-7.6533
-7.65913
-7.66411
-7.66851
-7.67255
-7.67641
-7.68024
-7.68419
-7.6884
-7.69296
-7.69797
-7.70349
-7.70959
-7.71631
-7.7237
-7.73178
-7.74058
-7.75012
-7.76042
-7.77149
-7.78333
-7.79596
-7.80936
-7.82357
-7.83855
-7.85432
-7.87086
-7.88817
-7.90623
-7.92505
-7.9446
-7.96487
-7.98584
-8.00748
-8.02975
-8.05265
-8.07611
-8.10013
-8.12465
-8.14964
-8.17505
-8.20084
-8.22695
-8.25334
-8.27995
-8.30673
-8.33363
-8.36056
-8.38745
-8.41422
-8.44077
-8.46702
-8.49286
-8.5182
-8.54291
-8.56689
-8.59002
-8.61216
-8.63319
-8.65296
-8.67133
-8.68815
-8.70326
-8.71649
-8.72767
-8.73664
-8.74319
-8.74715
-8.74832
-8.74651
-8.74149
-8.73309
-8.72106
-8.7052
-8.6853
-8.66111
-8.63242
-8.59899
-8.56061
-8.51703
-8.46806
-8.41343
-8.35295
-8.28638
-8.2135
-8.13412
-8.048
-7.95497
-7.85487
-7.7475
-7.6327
-7.51033
-7.38027
-7.24239
-7.09662
-6.94288
-6.78113
-6.61135
-6.43353
-6.24771
-6.05395
-5.85235
-5.64302
-5.42613
-5.20186
-4.97044
-4.73213
-4.4872
-4.23599
-3.97887
-3.71622
-3.44846
-3.17607
-2.89951
-2.61932
-2.33602
-2.05013
-1.7622
-1.47276
-1.18236
-0.891543
-0.600881
-0.310892
-0.0220636
0.265178
0.550451
0.833408
1.11366
1.39079
1.66435
1.93401
2.19947
2.46048
2.71682
2.96835
3.21491
3.45643