/*--------------------------------*- C++ -*----------------------------------*\
  =========                 |
  \\      /  F ield         | OpenFOAM: The Open Source CFD Toolbox
   \\    /   O peration     | Website:  https://openfoam.org
    \\  /    A nd           | Version:  7
     \\/     M anipulation  |
\*---------------------------------------------------------------------------*/
FoamFile
{
    version     2.0;
    format      ascii;
    class       surfaceScalarField;
    location    "200";
    object      phi;
}
// * * * * * * * * * * * * * * * * * * * * * * * * * * * * * * * * * * * * * //

dimensions      [0 3 -1 0 0 0 0];

internalField   nonuniform List<scalar> 
24170
(
3.129e-06
5.94012e-08
3.04662e-06
8.23812e-08
2.97353e-06
7.30952e-08
2.90489e-06
6.86369e-08
2.84056e-06
6.43332e-08
2.78323e-06
5.73296e-08
2.7339e-06
4.93297e-08
2.69194e-06
4.19585e-08
2.65625e-06
3.56818e-08
2.6258e-06
3.04561e-08
2.59959e-06
2.62111e-08
2.57678e-06
2.28068e-08
2.55671e-06
2.00713e-08
2.53879e-06
1.79215e-08
2.52261e-06
1.61711e-08
2.5072e-06
1.54148e-08
2.49287e-06
1.4328e-08
2.00802e-08
2.47279e-06
3.45306e-06
2.3586e-08
3.45701e-06
7.844e-08
3.45054e-06
7.95569e-08
3.43908e-06
8.00948e-08
3.4243e-06
7.91134e-08
3.40705e-06
7.45817e-08
3.38783e-06
6.8552e-08
3.3673e-06
6.24892e-08
3.34614e-06
5.68347e-08
3.32495e-06
5.16455e-08
3.30421e-06
4.69525e-08
3.28419e-06
4.28261e-08
3.26509e-06
3.91746e-08
3.24694e-06
3.60716e-08
3.22984e-06
3.32689e-08
3.21369e-06
3.1559e-08
3.19887e-06
2.91534e-08
3.14908e-08
3.18746e-06
3.66816e-06
1.79432e-08
3.6792e-06
6.73995e-08
3.68543e-06
7.33308e-08
3.68946e-06
7.60623e-08
3.69105e-06
7.75179e-08
3.69008e-06
7.55506e-08
3.68694e-06
7.16923e-08
3.6821e-06
6.73347e-08
3.67594e-06
6.2992e-08
3.66879e-06
5.87916e-08
3.66094e-06
5.48095e-08
3.65262e-06
5.11467e-08
3.64401e-06
4.77764e-08
3.63529e-06
4.47941e-08
3.62651e-06
4.20522e-08
3.61802e-06
4.00406e-08
3.60932e-06
3.78562e-08
3.76755e-08
3.60314e-06
3.92585e-06
1.74829e-08
3.93592e-06
5.73299e-08
3.94257e-06
6.66809e-08
3.94811e-06
7.05234e-08
3.95252e-06
7.31057e-08
3.95546e-06
7.26054e-08
3.95713e-06
7.00263e-08
3.95776e-06
6.67058e-08
3.95754e-06
6.32113e-08
3.95662e-06
5.97124e-08
3.95513e-06
5.62983e-08
3.95319e-06
5.30822e-08
3.9509e-06
5.00683e-08
3.94835e-06
4.73396e-08
3.94558e-06
4.48213e-08
3.94285e-06
4.27674e-08
3.93993e-06
4.07844e-08
3.95065e-08
3.93809e-06
4.2082e-06
1.6411e-08
4.21598e-06
4.95458e-08
4.22168e-06
6.09847e-08
4.22678e-06
6.54204e-08
4.23153e-06
6.83602e-08
4.23549e-06
6.86375e-08
4.23866e-06
6.68626e-08
4.24113e-06
6.42345e-08
4.24301e-06
6.13267e-08
4.2444e-06
5.83268e-08
4.24537e-06
5.53322e-08
4.24599e-06
5.24539e-08
4.24634e-06
4.97209e-08
4.24648e-06
4.71969e-08
4.24645e-06
4.48511e-08
4.24642e-06
4.28011e-08
4.24634e-06
4.08642e-08
3.91462e-08
4.2467e-06
4.51071e-06
1.47887e-08
4.51688e-06
4.33736e-08
4.52213e-06
5.57376e-08
4.52694e-06
6.06058e-08
4.53165e-06
6.36504e-08
4.5359e-06
6.43922e-08
4.53957e-06
6.31933e-08
4.54272e-06
6.10789e-08
4.54544e-06
5.86109e-08
4.54777e-06
5.59894e-08
4.54978e-06
5.33216e-08
4.55153e-06
5.07109e-08
4.55304e-06
4.82029e-08
4.5544e-06
4.58445e-08
4.55562e-06
4.36276e-08
4.55682e-06
4.15956e-08
4.55804e-06
3.96516e-08
3.77442e-08
4.55944e-06
4.83433e-06
1.3179e-08
4.83963e-06
3.8077e-08
4.84475e-06
5.06148e-08
4.84945e-06
5.59046e-08
4.85408e-06
5.90205e-08
4.85839e-06
6.00786e-08
4.86226e-06
5.93258e-08
4.86572e-06
5.76196e-08
4.86883e-06
5.55027e-08
4.87163e-06
5.31862e-08
4.87417e-06
5.07856e-08
4.87648e-06
4.83971e-08
4.87861e-06
4.60752e-08
4.8806e-06
4.38559e-08
4.88248e-06
4.17408e-08
4.88434e-06
3.97369e-08
4.88621e-06
3.77841e-08
3.58036e-08
4.88815e-06
5.18105e-06
1.1713e-08
5.18575e-06
3.33719e-08
5.19075e-06
4.56146e-08
5.1954e-06
5.12558e-08
5.19998e-06
5.44379e-08
5.20434e-06
5.57233e-08
5.20833e-06
5.53345e-08
5.21197e-06
5.39748e-08
5.21532e-06
5.21568e-08
5.2184e-06
5.01022e-08
5.22126e-06
4.79314e-08
5.22392e-06
4.57364e-08
5.22642e-06
4.35751e-08
5.22879e-06
4.14783e-08
5.23108e-06
3.94511e-08
5.23333e-06
3.74864e-08
5.23557e-06
3.55423e-08
3.35547e-08
5.23782e-06
5.55269e-06
1.0358e-08
5.55689e-06
2.91769e-08
5.56169e-06
4.08098e-08
5.5663e-06
4.66501e-08
5.57086e-06
4.9877e-08
5.57526e-06
5.13225e-08
5.57936e-06
5.12347e-08
5.58315e-06
5.01803e-08
5.58668e-06
4.86291e-08
5.58997e-06
4.68099e-08
5.59306e-06
4.48464e-08
5.59597e-06
4.28278e-08
5.59873e-06
4.08125e-08
5.60138e-06
3.883e-08
5.60394e-06
3.68873e-08
5.60645e-06
3.49752e-08
5.60893e-06
3.30636e-08
3.11134e-08
5.61137e-06
5.95104e-06
9.09544e-09
5.95478e-06
2.54308e-08
5.95935e-06
3.6239e-08
5.96391e-06
4.20977e-08
5.96845e-06
4.53334e-08
5.97289e-06
4.68822e-08
5.97709e-06
4.70365e-08
5.98102e-06
4.62503e-08
5.98471e-06
4.49409e-08
5.98818e-06
4.33383e-08
5.99145e-06
4.15678e-08
5.99457e-06
3.97158e-08
5.99754e-06
3.784e-08
6.0004e-06
3.59707e-08
6.00317e-06
3.41172e-08
6.00587e-06
3.22735e-08
6.00851e-06
3.042e-08
2.85394e-08
6.01109e-06
6.37798e-06
7.92478e-09
6.38134e-06
2.2069e-08
6.38567e-06
3.19129e-08
6.39015e-06
3.76153e-08
6.39467e-06
4.0813e-08
6.39914e-06
4.24146e-08
6.40342e-06
4.27522e-08
6.40748e-06
4.21954e-08
6.41132e-06
4.11043e-08
6.41495e-06
3.97021e-08
6.4184e-06
3.81139e-08
6.4217e-06
3.64228e-08
6.42485e-06
3.46854e-08
6.42789e-06
3.29331e-08
6.43083e-06
3.11783e-08
6.43368e-06
2.94206e-08
6.43645e-06
2.76492e-08
2.58642e-08
6.43913e-06
5.74176e-06
6.99904e-09
5.74434e-06
1.94871e-08
5.74781e-06
2.84454e-08
5.75153e-06
3.38899e-08
5.75533e-06
3.70135e-08
5.75912e-06
3.8626e-08
5.7628e-06
3.90739e-08
5.76632e-06
3.86786e-08
5.76967e-06
3.7754e-08
5.77286e-06
3.65096e-08
5.7759e-06
3.50682e-08
5.77882e-06
3.35105e-08
5.78161e-06
3.18913e-08
5.7843e-06
3.02432e-08
5.7869e-06
2.85812e-08
5.78941e-06
2.691e-08
5.79183e-06
2.52249e-08
2.35375e-08
5.79416e-06
6.99914e-06
6.01586e-09
7.00187e-06
1.67548e-08
7.00563e-06
2.46829e-08
7.0098e-06
2.97254e-08
7.01411e-06
3.26963e-08
7.01846e-06
3.42753e-08
7.02273e-06
3.4804e-08
7.02686e-06
3.45577e-08
7.03081e-06
3.38005e-08
7.03459e-06
3.27228e-08
7.03822e-06
3.14421e-08
7.0417e-06
3.00349e-08
7.04503e-06
2.85539e-08
7.04824e-06
2.70323e-08
7.05134e-06
2.54883e-08
7.05432e-06
2.39312e-08
7.05718e-06
2.23622e-08
2.08018e-08
7.05992e-06
8.53188e-06
4.98297e-09
8.53474e-06
1.38994e-08
8.53877e-06
2.06528e-08
8.54336e-06
2.51287e-08
8.54822e-06
2.78426e-08
8.55317e-06
2.93246e-08
8.55808e-06
2.9888e-08
8.56288e-06
2.9764e-08
8.56751e-06
2.91664e-08
8.57197e-06
2.82596e-08
8.57626e-06
2.71513e-08
8.58039e-06
2.59126e-08
8.58435e-06
2.45929e-08
8.58815e-06
2.3225e-08
8.59181e-06
2.18296e-08
8.59532e-06
2.04199e-08
8.59868e-06
1.9002e-08
1.76013e-08
8.60189e-06
1.04003e-05
3.90942e-09
1.04033e-05
1.09403e-08
1.04075e-05
1.63767e-08
1.04125e-05
2.01082e-08
1.0418e-05
2.24358e-08
1.04235e-05
2.37367e-08
1.04292e-05
2.42716e-08
1.04347e-05
2.42282e-08
1.04401e-05
2.37708e-08
1.04453e-05
2.30325e-08
1.04504e-05
2.2106e-08
1.04552e-05
2.10542e-08
1.04599e-05
1.99213e-08
1.04644e-05
1.87385e-08
1.04687e-05
1.75271e-08
1.04728e-05
1.63029e-08
1.04767e-05
1.50746e-08
1.38695e-08
1.04805e-05
1.26779e-05
2.80018e-09
1.2681e-05
7.87161e-09
1.26855e-05
1.18527e-08
1.26909e-05
1.46579e-08
1.26969e-05
1.6448e-08
1.27032e-05
1.74621e-08
1.27096e-05
1.78905e-08
1.27159e-05
1.78724e-08
1.27222e-05
1.75252e-08
1.27283e-05
1.69464e-08
1.27342e-05
1.62082e-08
1.27399e-05
1.53616e-08
1.27453e-05
1.44432e-08
1.27506e-05
1.348e-08
1.27556e-05
1.24918e-08
1.27604e-05
1.1494e-08
1.2765e-05
1.04959e-08
9.52417e-09
1.27694e-05
1.54543e-05
1.64425e-09
1.54576e-05
4.64723e-09
1.54624e-05
7.02297e-09
1.54683e-05
8.71744e-09
1.5475e-05
9.80487e-09
1.5482e-05
1.04104e-08
1.54893e-05
1.06437e-08
1.54966e-05
1.05887e-08
1.55038e-05
1.03157e-08
1.55108e-05
9.88418e-09
1.55177e-05
9.34055e-09
1.55243e-05
8.71906e-09
1.55307e-05
8.04535e-09
1.55369e-05
7.3391e-09
1.55428e-05
6.61563e-09
1.55484e-05
5.88747e-09
1.55537e-05
5.16236e-09
4.46328e-09
1.55588e-05
1.88389e-05
4.01508e-10
1.88424e-05
1.14228e-09
1.88477e-05
1.71333e-09
1.88543e-05
2.09534e-09
1.88618e-05
2.30827e-09
1.88698e-05
2.37985e-09
1.88782e-05
2.33208e-09
1.88866e-05
2.18464e-09
1.88949e-05
1.95758e-09
1.89031e-05
1.66908e-09
1.89111e-05
1.33428e-09
1.89189e-05
9.65659e-10
1.89264e-05
5.73936e-10
1.89335e-05
1.68237e-10
1.89404e-05
-2.43579e-10
1.89469e-05
-6.54367e-10
1.89532e-05
-1.05995e-09
-1.44272e-09
1.89591e-05
2.29648e-05
-1.0296e-09
2.29688e-05
-2.93245e-09
2.29751e-05
-4.49595e-09
2.29828e-05
-5.68498e-09
2.29917e-05
-6.52009e-09
2.30011e-05
-7.08763e-09
2.30109e-05
-7.47493e-09
2.30209e-05
-7.73653e-09
2.30307e-05
-7.90935e-09
2.30404e-05
-8.02451e-09
2.30499e-05
-8.10608e-09
2.3059e-05
-8.16838e-09
2.30678e-05
-8.21968e-09
2.30762e-05
-8.26408e-09
2.30843e-05
-8.3039e-09
2.3092e-05
-8.33897e-09
2.30993e-05
-8.37019e-09
-8.38638e-09
2.31062e-05
1.68118e-05
-2.15329e-09
1.6815e-05
-6.10574e-09
1.68198e-05
-9.33007e-09
1.68258e-05
-1.16882e-08
1.68326e-05
-1.32394e-08
1.68397e-05
-1.42115e-08
1.6847e-05
-1.4792e-08
1.68543e-05
-1.50848e-08
1.68616e-05
-1.51687e-08
1.68687e-05
-1.51161e-08
1.68756e-05
-1.49794e-08
1.68822e-05
-1.4792e-08
1.68885e-05
-1.45742e-08
1.68946e-05
-1.43403e-08
1.69004e-05
-1.40986e-08
1.69059e-05
-1.3854e-08
1.69112e-05
-1.36095e-08
-1.33586e-08
1.69161e-05
1.46356e-05
-3.23256e-09
1.46387e-05
-9.19503e-09
1.46435e-05
-1.40483e-08
1.46492e-05
-1.74374e-08
1.46555e-05
-1.95332e-08
1.46621e-05
-2.07857e-08
1.46687e-05
-2.1465e-08
1.46754e-05
-2.17069e-08
1.46818e-05
-2.16427e-08
1.46881e-05
-2.13889e-08
1.46942e-05
-2.1021e-08
1.46999e-05
-2.05839e-08
1.47055e-05
-2.01077e-08
1.47107e-05
-1.96135e-08
1.47158e-05
-1.91146e-08
1.47205e-05
-1.86185e-08
1.4725e-05
-1.813e-08
-1.76447e-08
1.47293e-05
1.27411e-05
-4.24316e-09
1.27443e-05
-1.23249e-08
1.27491e-05
-1.88826e-08
1.27548e-05
-2.30883e-08
1.27607e-05
-2.55201e-08
1.27669e-05
-2.69517e-08
1.27731e-05
-2.76459e-08
1.27791e-05
-2.77521e-08
1.2785e-05
-2.74774e-08
1.27906e-05
-2.69872e-08
1.27959e-05
-2.6371e-08
1.2801e-05
-2.56805e-08
1.28059e-05
-2.49527e-08
1.28105e-05
-2.42132e-08
1.28148e-05
-2.34776e-08
1.2819e-05
-2.27538e-08
1.28229e-05
-2.20469e-08
-2.13538e-08
1.28266e-05
1.10918e-05
-5.08763e-09
1.1095e-05
-1.55488e-08
1.11001e-05
-2.40115e-08
1.11058e-05
-2.8717e-08
1.11115e-05
-3.12607e-08
1.11173e-05
-3.27715e-08
1.1123e-05
-3.33809e-08
1.11286e-05
-3.32712e-08
1.11338e-05
-3.27447e-08
1.11388e-05
-3.19988e-08
1.11436e-05
-3.11254e-08
1.11481e-05
-3.01811e-08
1.11524e-05
-2.92091e-08
1.11564e-05
-2.82379e-08
1.11602e-05
-2.72826e-08
1.11638e-05
-2.63514e-08
1.11672e-05
-2.54481e-08
-2.45706e-08
1.11704e-05
9.65582e-06
-5.69529e-09
9.65925e-06
-1.89744e-08
9.6646e-06
-2.93593e-08
9.6701e-06
-3.42169e-08
9.67566e-06
-3.68227e-08
9.68122e-06
-3.8335e-08
9.68656e-06
-3.87184e-08
9.69159e-06
-3.8304e-08
9.69634e-06
-3.74947e-08
9.70083e-06
-3.64847e-08
9.70505e-06
-3.53529e-08
9.70903e-06
-3.41588e-08
9.71277e-06
-3.295e-08
9.71629e-06
-3.17559e-08
9.7196e-06
-3.05915e-08
9.72271e-06
-2.9464e-08
9.72564e-06
-2.83755e-08
-2.7322e-08
9.72839e-06
8.40532e-06
-5.66625e-09
8.40964e-06
-2.32904e-08
8.41488e-06
-3.4596e-08
8.41991e-06
-3.92469e-08
8.42527e-06
-4.21912e-08
8.43069e-06
-4.3746e-08
8.43577e-06
-4.38072e-08
8.44048e-06
-4.30135e-08
8.44486e-06
-4.18675e-08
8.44892e-06
-4.05454e-08
8.45268e-06
-3.9117e-08
8.45617e-06
-3.76444e-08
8.45939e-06
-3.61775e-08
8.46238e-06
-3.47437e-08
8.46515e-06
-3.33582e-08
8.46771e-06
-3.20272e-08
8.47009e-06
-3.07526e-08
-2.95309e-08
8.4723e-06
7.31455e-06
-2.9287e-09
7.32119e-06
-2.99346e-08
7.32674e-06
-4.01485e-08
7.3317e-06
-4.42e-08
7.3371e-06
-4.75909e-08
7.34242e-06
-4.90689e-08
7.3473e-06
-4.86874e-08
7.35171e-06
-4.74289e-08
7.3557e-06
-4.5848e-08
7.35925e-06
-4.41038e-08
7.36241e-06
-4.22762e-08
7.36521e-06
-4.04383e-08
7.36767e-06
-3.86425e-08
7.36984e-06
-3.69129e-08
7.37175e-06
-3.52648e-08
7.37342e-06
-3.37009e-08
7.37489e-06
-3.22215e-08
-3.08172e-08
7.37618e-06
6.36245e-06
4.68704e-09
6.37189e-06
-3.93771e-08
6.37932e-06
-4.75766e-08
6.38596e-06
-5.08423e-08
6.39225e-06
-5.38745e-08
6.39756e-06
-5.43836e-08
6.40186e-06
-5.29839e-08
6.40534e-06
-5.09114e-08
6.40814e-06
-4.86499e-08
6.41033e-06
-4.62906e-08
6.41196e-06
-4.3911e-08
6.41311e-06
-4.15877e-08
6.41384e-06
-3.93717e-08
6.41421e-06
-3.72811e-08
6.41428e-06
-3.53297e-08
6.41409e-06
-3.35136e-08
6.4137e-06
-3.18338e-08
-3.02704e-08
6.41315e-06
5.5412e-06
8.94924e-09
5.55033e-06
-4.85006e-08
5.55834e-06
-5.55957e-08
5.56605e-06
-5.85452e-08
5.57251e-06
-6.03372e-08
5.57684e-06
-5.87096e-08
5.57908e-06
-5.52269e-08
5.57964e-06
-5.14724e-08
5.57889e-06
-4.78981e-08
5.57711e-06
-4.45076e-08
5.57451e-06
-4.13193e-08
5.5713e-06
-3.83762e-08
5.56762e-06
-3.56863e-08
5.56358e-06
-3.32415e-08
5.55929e-06
-3.10386e-08
5.55483e-06
-2.90608e-08
5.55031e-06
-2.73098e-08
-2.57363e-08
5.54578e-06
4.86004e-06
-2.3487e-08
4.86539e-06
-5.38429e-08
4.86524e-06
-5.54507e-08
4.86217e-06
-5.54763e-08
4.857e-06
-5.51676e-08
4.8495e-06
-5.12101e-08
4.83981e-06
-4.55318e-08
4.82842e-06
-4.00802e-08
4.81584e-06
-3.5326e-08
4.80257e-06
-3.12306e-08
4.78897e-06
-2.77227e-08
4.77533e-06
-2.47398e-08
4.76185e-06
-2.22041e-08
4.74865e-06
-2.00442e-08
4.73583e-06
-1.8214e-08
4.72345e-06
-1.66805e-08
4.71162e-06
-1.54814e-08
-1.51362e-08
4.70102e-06
4.17919e-06
4.12535e-06
4.0699e-06
4.01442e-06
3.95925e-06
3.90804e-06
3.86251e-06
3.82243e-06
3.7871e-06
3.75587e-06
3.72815e-06
3.70341e-06
3.68121e-06
3.66116e-06
3.64295e-06
3.62627e-06
3.61079e-06
3.59565e-06
1.48065e-08
-1.48219e-08
2.84731e-08
-1.36898e-08
3.56469e-08
-7.19092e-09
3.57659e-08
-1.36e-10
2.96758e-08
6.07717e-09
1.87296e-08
1.09312e-08
4.24911e-09
1.44703e-08
-1.27432e-08
1.69786e-08
-3.15216e-08
1.87704e-08
-5.16101e-08
2.00761e-08
-7.26913e-08
2.10749e-08
-9.4591e-08
2.18885e-08
-1.17187e-07
2.25914e-08
-1.40423e-07
2.32259e-08
-1.64244e-07
2.38169e-08
-1.88633e-07
2.43789e-08
-2.13559e-07
2.49238e-08
-2.39034e-07
2.54658e-08
-2.65061e-07
2.60252e-08
-2.91694e-07
2.6624e-08
-3.18985e-07
2.72903e-08
-3.47058e-07
2.8067e-08
-3.76034e-07
2.89759e-08
-4.06087e-07
3.0049e-08
-4.37395e-07
3.13091e-08
-4.68701e-07
3.13046e-08
-4.97971e-07
2.92697e-08
-5.26993e-07
2.90198e-08
-5.58634e-07
3.16382e-08
-5.93165e-07
3.45256e-08
-6.31692e-07
3.85213e-08
-6.76859e-07
4.5156e-08
-7.19667e-07
4.28004e-08
-7.57735e-07
3.80526e-08
-8.00984e-07
4.3243e-08
-8.44659e-07
4.36623e-08
-8.8472e-07
4.00585e-08
-9.24352e-07
3.96225e-08
-9.66458e-07
4.21052e-08
-1.00898e-06
4.25103e-08
-1.05173e-06
4.27522e-08
-1.09465e-06
4.29178e-08
-1.13767e-06
4.30174e-08
-1.18072e-06
4.30429e-08
-1.22373e-06
4.30108e-08
-1.26666e-06
4.2934e-08
-1.30949e-06
4.28256e-08
-1.35218e-06
4.26936e-08
-1.39473e-06
4.25432e-08
-1.43711e-06
4.23776e-08
-1.47931e-06
4.21983e-08
-1.52132e-06
4.20055e-08
-1.56312e-06
4.17988e-08
-1.60471e-06
4.15773e-08
-1.64605e-06
4.13396e-08
-1.68714e-06
4.10834e-08
-1.72795e-06
4.08072e-08
-1.76846e-06
4.05085e-08
-1.80865e-06
4.01856e-08
-1.84849e-06
3.98357e-08
-1.88795e-06
3.94572e-08
-1.927e-06
3.90478e-08
-1.96561e-06
3.86059e-08
-2.00374e-06
3.81286e-08
-2.04135e-06
3.76148e-08
-2.07841e-06
3.70618e-08
-2.11487e-06
3.64688e-08
-2.15071e-06
3.58336e-08
-2.18586e-06
3.51556e-08
-2.22029e-06
3.44327e-08
-2.25395e-06
3.36647e-08
-2.28679e-06
3.28494e-08
-2.31877e-06
3.19868e-08
-2.34985e-06
3.10749e-08
-2.37995e-06
3.0114e-08
-2.40906e-06
2.91022e-08
-2.43709e-06
2.80403e-08
-2.46402e-06
2.69273e-08
-2.48977e-06
2.57637e-08
-2.51432e-06
2.45473e-08
-2.53758e-06
2.32788e-08
-2.55953e-06
2.19559e-08
-2.5801e-06
2.05787e-08
-2.59923e-06
1.91437e-08
-2.61686e-06
1.76502e-08
-2.63294e-06
1.60941e-08
-2.64739e-06
1.44727e-08
-2.66015e-06
1.27799e-08
-2.67114e-06
1.10089e-08
-2.68026e-06
9.14789e-09
-2.68742e-06
7.17959e-09
-2.69249e-06
5.0891e-09
-2.69535e-06
2.88234e-09
-2.69596e-06
6.26158e-10
-2.69448e-06
-1.47105e-09
-2.69109e-06
-3.37226e-09
-2.68586e-06
-5.22271e-09
-2.67878e-06
-7.0647e-09
-2.66985e-06
-8.91591e-09
-2.65906e-06
-1.07795e-08
-2.64639e-06
-1.26537e-08
-2.63183e-06
-1.45358e-08
-2.61539e-06
-1.6422e-08
-2.59705e-06
-1.83082e-08
-2.57683e-06
-2.01912e-08
-2.55472e-06
-2.20661e-08
-2.53075e-06
-2.39299e-08
-2.50493e-06
-2.57767e-08
-2.47728e-06
-2.76032e-08
-2.44783e-06
-2.94026e-08
-2.4166e-06
-3.11721e-08
-2.38365e-06
-3.29035e-08
-2.34901e-06
-3.45947e-08
-2.31272e-06
-3.62367e-08
-2.27485e-06
-3.78283e-08
-2.23544e-06
-3.93598e-08
-2.19457e-06
-4.08311e-08
-2.1523e-06
-4.22324e-08
-2.10871e-06
-4.35631e-08
-2.06387e-06
-4.48118e-08
-2.01785e-06
-4.59828e-08
-1.97072e-06
-4.70759e-08
-1.92257e-06
-4.80913e-08
-1.8735e-06
-4.9017e-08
-1.82361e-06
-4.98552e-08
-1.77299e-06
-5.05997e-08
-1.72173e-06
-5.1267e-08
-1.66991e-06
-5.18397e-08
-1.61764e-06
-5.23218e-08
-1.56501e-06
-5.27025e-08
-1.51212e-06
-5.29888e-08
-1.45907e-06
-5.31716e-08
-1.40595e-06
-5.32575e-08
-1.35287e-06
-5.32411e-08
-1.29991e-06
-5.31277e-08
-1.24717e-06
-5.2917e-08
-1.19473e-06
-5.26105e-08
-1.14268e-06
-5.22088e-08
-1.0911e-06
-5.17099e-08
-1.04006e-06
-5.11271e-08
-9.89645e-07
-5.04712e-08
-9.39909e-07
-4.97617e-08
-8.90907e-07
-4.90042e-08
-8.42675e-07
-4.82072e-08
-7.95256e-07
-4.737e-08
-7.48674e-07
-4.65055e-08
-7.02956e-07
-4.56165e-08
-6.58109e-07
-4.47177e-08
-6.14143e-07
-4.38096e-08
-5.71047e-07
-4.29084e-08
-5.28813e-07
-4.20175e-08
-4.87408e-07
-4.11548e-08
-4.46808e-07
-4.03203e-08
-4.06961e-07
-3.95328e-08
-3.67822e-07
-3.87975e-08
-3.29316e-07
-3.81322e-08
-2.91382e-07
-3.75363e-08
-2.53921e-07
-3.70349e-08
-2.16845e-07
-3.66309e-08
-1.80044e-07
-3.63315e-08
-1.43407e-07
-3.61558e-08
-1.06752e-07
-3.61527e-08
-6.99831e-08
-3.6262e-08
-3.30399e-08
-3.64223e-08
4.0291e-09
-3.6551e-08
4.10399e-08
-3.64862e-08
7.79916e-08
-3.6447e-08
1.1538e-07
-3.68917e-08
1.53773e-07
-3.79239e-08
1.93692e-07
-3.94598e-08
2.35519e-07
-4.13991e-08
2.79562e-07
-4.3628e-08
3.25997e-07
-4.60542e-08
3.74935e-07
-4.85735e-08
4.26291e-07
-5.10305e-08
4.79654e-07
-5.30604e-08
5.3396e-07
-5.40462e-08
5.86416e-07
-5.22203e-08
6.30851e-07
-4.4234e-08
1.38929e-09
6.29652e-07
7.9719e-09
-2.28073e-08
8.02535e-09
-1.37592e-08
3.28494e-09
-2.46026e-09
-4.70292e-09
7.84311e-09
-1.54909e-08
1.68585e-08
-2.90112e-08
2.44442e-08
-4.51394e-08
3.0593e-08
-6.36175e-08
3.54498e-08
-8.41032e-08
3.92513e-08
-1.06288e-07
4.22538e-08
-1.29905e-07
4.46882e-08
-1.54762e-07
4.6739e-08
-1.80718e-07
4.85435e-08
-2.07697e-07
5.01995e-08
-2.3566e-07
5.17765e-08
-2.64612e-07
5.33248e-08
-2.94574e-07
5.48835e-08
-3.25601e-07
5.64871e-08
-3.57742e-07
5.81646e-08
-3.91067e-07
5.99439e-08
-4.25636e-07
6.18573e-08
-4.61503e-07
6.39305e-08
-4.98668e-07
6.61411e-08
-5.3701e-07
6.83888e-08
-5.76203e-07
7.05023e-08
-6.16956e-07
7.20577e-08
-6.60721e-07
7.30333e-08
-7.06203e-07
7.45008e-08
-7.51417e-07
7.68503e-08
-7.96565e-07
7.96694e-08
-8.40718e-07
8.267e-08
-8.80736e-07
8.51676e-08
-9.23268e-07
8.53269e-08
-9.69718e-07
8.4496e-08
-1.01168e-06
8.52004e-08
-1.05293e-06
8.49055e-08
-1.09663e-06
8.37513e-08
-1.14032e-06
8.33111e-08
-1.18181e-06
8.35976e-08
-1.22288e-06
8.35692e-08
-1.2635e-06
8.33782e-08
-1.30371e-06
8.31216e-08
-1.34352e-06
8.28251e-08
-1.38297e-06
8.24952e-08
-1.4221e-06
8.21344e-08
-1.46091e-06
8.1746e-08
-1.49942e-06
8.13334e-08
-1.53762e-06
8.08996e-08
-1.57553e-06
8.04457e-08
-1.61312e-06
7.9972e-08
-1.6504e-06
7.94771e-08
-1.68736e-06
7.89593e-08
-1.72398e-06
7.84157e-08
-1.76025e-06
7.78435e-08
-1.79615e-06
7.72386e-08
-1.83167e-06
7.65974e-08
-1.86678e-06
7.59159e-08
-1.90146e-06
7.51904e-08
-1.93569e-06
7.44165e-08
-1.96945e-06
7.35905e-08
-2.0027e-06
7.27087e-08
-2.03543e-06
7.17677e-08
-2.06758e-06
7.07638e-08
-2.09915e-06
6.96936e-08
-2.13009e-06
6.8554e-08
-2.16037e-06
6.7342e-08
-2.18995e-06
6.60549e-08
-2.21881e-06
6.46904e-08
-2.2469e-06
6.32463e-08
-2.27418e-06
6.17205e-08
-2.30063e-06
6.01111e-08
-2.32619e-06
5.84162e-08
-2.35083e-06
5.66343e-08
-2.37452e-06
5.47639e-08
-2.39721e-06
5.2804e-08
-2.41886e-06
5.07533e-08
-2.43942e-06
4.86117e-08
-2.45887e-06
4.63784e-08
-2.47716e-06
4.40528e-08
-2.49424e-06
4.16339e-08
-2.51007e-06
3.91215e-08
-2.52463e-06
3.65145e-08
-2.53785e-06
3.38124e-08
-2.54971e-06
3.1014e-08
-2.56017e-06
2.81191e-08
-2.56919e-06
2.51265e-08
-2.57675e-06
2.20362e-08
-2.5828e-06
1.88474e-08
-2.58734e-06
1.55611e-08
-2.59035e-06
1.21788e-08
-2.59187e-06
8.70982e-09
-2.59195e-06
5.17904e-09
-2.59068e-06
1.62816e-09
-2.58814e-06
-1.90309e-09
-2.58418e-06
-5.42901e-09
-2.57856e-06
-8.98631e-09
-2.57119e-06
-1.25781e-08
-2.56205e-06
-1.62015e-08
-2.5511e-06
-1.98563e-08
-2.53833e-06
-2.3539e-08
-2.52373e-06
-2.72434e-08
-2.5073e-06
-3.09631e-08
-2.48901e-06
-3.469e-08
-2.46888e-06
-3.84167e-08
-2.44692e-06
-4.21348e-08
-2.42312e-06
-4.58363e-08
-2.39751e-06
-4.95123e-08
-2.37011e-06
-5.31538e-08
-2.34093e-06
-5.67509e-08
-2.31001e-06
-6.02936e-08
-2.27737e-06
-6.37717e-08
-2.24307e-06
-6.71744e-08
-2.20714e-06
-7.04916e-08
-2.16964e-06
-7.3712e-08
-2.13061e-06
-7.68258e-08
-2.09012e-06
-7.98219e-08
-2.04824e-06
-8.26913e-08
-2.00503e-06
-8.54239e-08
-1.96056e-06
-8.80107e-08
-1.91491e-06
-9.04406e-08
-1.86816e-06
-9.27081e-08
-1.82039e-06
-9.48112e-08
-1.77169e-06
-9.67544e-08
-1.72215e-06
-9.85283e-08
-1.67186e-06
-1.00119e-07
-1.62092e-06
-1.01526e-07
-1.56943e-06
-1.02764e-07
-1.51746e-06
-1.0382e-07
-1.46512e-06
-1.04689e-07
-1.41251e-06
-1.05363e-07
-1.3597e-06
-1.05844e-07
-1.30681e-06
-1.06126e-07
-1.25393e-06
-1.06214e-07
-1.20115e-06
-1.06105e-07
-1.14857e-06
-1.05807e-07
-1.09626e-06
-1.05321e-07
-1.0443e-06
-1.04656e-07
-9.92781e-07
-1.0381e-07
-9.41762e-07
-1.02793e-07
-8.91312e-07
-1.01617e-07
-8.41501e-07
-1.00309e-07
-7.92382e-07
-9.8889e-08
-7.44004e-07
-9.73816e-08
-6.964e-07
-9.57924e-08
-6.49603e-07
-9.41415e-08
-6.03627e-07
-9.24356e-08
-5.58489e-07
-9.07018e-08
-5.14186e-07
-8.89471e-08
-4.70717e-07
-8.71987e-08
-4.28059e-07
-8.5463e-08
-3.86192e-07
-8.37739e-08
-3.45073e-07
-8.21385e-08
-3.04662e-07
-8.05883e-08
-2.64897e-07
-7.91305e-08
-2.25714e-07
-7.7807e-08
-1.87025e-07
-7.66231e-08
-1.48746e-07
-7.56136e-08
-1.1076e-07
-7.47967e-08
-7.29516e-08
-7.42143e-08
-3.51832e-08
-7.38556e-08
2.65533e-09
-7.37523e-08
4.06535e-08
-7.38933e-08
7.89433e-08
-7.43013e-08
1.17801e-07
-7.50199e-08
1.57556e-07
-7.60559e-08
1.98635e-07
-7.73101e-08
2.41342e-07
-7.89095e-08
2.85802e-07
-8.11041e-08
3.32152e-07
-8.40388e-08
3.80614e-07
-8.76876e-08
4.31384e-07
-9.19475e-08
4.84623e-07
-9.66508e-08
5.40394e-07
-1.01623e-07
5.98637e-07
-1.06623e-07
6.59078e-07
-1.11294e-07
7.21161e-07
-1.14981e-07
7.83643e-07
-1.16384e-07
8.44736e-07
-1.13186e-07
8.98996e-07
-9.83828e-08
-4.9124e-08
9.4961e-07
-3.41808e-09
-1.93993e-08
-1.28931e-08
-4.29476e-09
-2.46888e-08
9.32939e-09
-3.79993e-08
2.11483e-08
-5.26681e-08
3.15232e-08
-6.879e-08
4.05615e-08
-8.65082e-08
4.83076e-08
-1.05908e-07
5.48447e-08
-1.26979e-07
6.03188e-08
-1.49647e-07
6.49177e-08
-1.738e-07
6.88383e-08
-1.99328e-07
7.22624e-08
-2.26132e-07
7.53439e-08
-2.54143e-07
7.82062e-08
-2.83314e-07
8.09456e-08
-3.1363e-07
8.36361e-08
-3.45083e-07
8.63345e-08
-3.77684e-07
8.90841e-08
-4.11436e-07
9.19154e-08
-4.46342e-07
9.48464e-08
-4.82362e-07
9.7876e-08
-5.19406e-07
1.00972e-07
-5.5733e-07
1.04065e-07
-5.9598e-07
1.07038e-07
-6.35224e-07
1.09745e-07
-6.75206e-07
1.1204e-07
-7.16105e-07
1.13932e-07
-7.57355e-07
1.15749e-07
-7.98122e-07
1.17617e-07
-8.37904e-07
1.19448e-07
-8.76336e-07
1.21099e-07
-9.13356e-07
1.22184e-07
-9.50543e-07
1.2251e-07
-9.8839e-07
1.22338e-07
-1.02533e-06
1.22136e-07
-1.06205e-06
1.21627e-07
-1.09925e-06
1.20942e-07
-1.13637e-06
1.20435e-07
-1.17283e-06
1.20052e-07
-1.20885e-06
1.19586e-07
-1.24453e-06
1.19063e-07
-1.27992e-06
1.18509e-07
-1.31504e-06
1.17938e-07
-1.3499e-06
1.17353e-07
-1.38451e-06
1.16753e-07
-1.41891e-06
1.16137e-07
-1.45308e-06
1.15503e-07
-1.48703e-06
1.14849e-07
-1.52075e-06
1.14173e-07
-1.55425e-06
1.1347e-07
-1.58751e-06
1.12739e-07
-1.62053e-06
1.11973e-07
-1.65328e-06
1.11169e-07
-1.68576e-06
1.10321e-07
-1.71795e-06
1.09424e-07
-1.74983e-06
1.08472e-07
-1.78137e-06
1.0746e-07
-1.81256e-06
1.06381e-07
-1.84338e-06
1.05231e-07
-1.8738e-06
1.04004e-07
-1.90378e-06
1.02695e-07
-1.93332e-06
1.01299e-07
-1.96236e-06
9.98104e-08
-1.9909e-06
9.82258e-08
-2.01888e-06
9.65405e-08
-2.04629e-06
9.47503e-08
-2.07309e-06
9.28516e-08
-2.09924e-06
9.08412e-08
-2.12471e-06
8.87157e-08
-2.14946e-06
8.64723e-08
-2.17345e-06
8.41084e-08
-2.19665e-06
8.16215e-08
-2.21903e-06
7.90093e-08
-2.24053e-06
7.62702e-08
-2.26113e-06
7.34022e-08
-2.28077e-06
7.04043e-08
-2.29944e-06
6.72756e-08
-2.31707e-06
6.40152e-08
-2.33364e-06
6.06226e-08
-2.3491e-06
5.70971e-08
-2.36341e-06
5.34386e-08
-2.37654e-06
4.9647e-08
-2.38844e-06
4.57224e-08
-2.39909e-06
4.16655e-08
-2.40844e-06
3.74774e-08
-2.41646e-06
3.31598e-08
-2.42314e-06
2.87154e-08
-2.42843e-06
2.41484e-08
-2.43232e-06
1.94644e-08
-2.4348e-06
1.4672e-08
-2.43587e-06
9.78484e-09
-2.43551e-06
4.82406e-09
-2.43369e-06
-1.88494e-10
-2.43034e-06
-5.24542e-09
-2.4254e-06
-1.03678e-08
-2.41881e-06
-1.55712e-08
-2.41054e-06
-2.08472e-08
-2.40055e-06
-2.61856e-08
-2.38882e-06
-3.15778e-08
-2.37534e-06
-3.70138e-08
-2.36009e-06
-4.24835e-08
-2.34307e-06
-4.79757e-08
-2.32427e-06
-5.34786e-08
-2.3037e-06
-5.89804e-08
-2.28135e-06
-6.44685e-08
-2.25723e-06
-6.99307e-08
-2.23137e-06
-7.5353e-08
-2.20378e-06
-8.07221e-08
-2.17449e-06
-8.60227e-08
-2.14352e-06
-9.12406e-08
-2.11091e-06
-9.63595e-08
-2.0767e-06
-1.01365e-07
-2.04093e-06
-1.0624e-07
-2.00365e-06
-1.10969e-07
-1.96492e-06
-1.15537e-07
-1.92479e-06
-1.19929e-07
-1.88334e-06
-1.24129e-07
-1.84062e-06
-1.28126e-07
-1.79672e-06
-1.31902e-07
-1.7517e-06
-1.35446e-07
-1.70564e-06
-1.38746e-07
-1.65863e-06
-1.41796e-07
-1.61076e-06
-1.44601e-07
-1.5621e-06
-1.47158e-07
-1.51276e-06
-1.49442e-07
-1.46283e-06
-1.51452e-07
-1.41239e-06
-1.53201e-07
-1.36154e-06
-1.54683e-07
-1.31036e-06
-1.55886e-07
-1.25894e-06
-1.56805e-07
-1.20739e-06
-1.57437e-07
-1.15578e-06
-1.5778e-07
-1.10421e-06
-1.57836e-07
-1.05276e-06
-1.57608e-07
-1.00152e-06
-1.57104e-07
-9.50575e-07
-1.56332e-07
-8.9999e-07
-1.553e-07
-8.49835e-07
-1.54017e-07
-8.00171e-07
-1.52496e-07
-7.5106e-07
-1.50756e-07
-7.02559e-07
-1.48827e-07
-6.54719e-07
-1.46741e-07
-6.07577e-07
-1.44526e-07
-5.61166e-07
-1.42203e-07
-5.15502e-07
-1.39794e-07
-4.70602e-07
-1.37322e-07
-4.26464e-07
-1.34816e-07
-3.83086e-07
-1.32299e-07
-3.40449e-07
-1.298e-07
-2.98531e-07
-1.27343e-07
-2.57293e-07
-1.24963e-07
-2.16694e-07
-1.22687e-07
-1.76675e-07
-1.20546e-07
-1.37173e-07
-1.1857e-07
-9.8105e-08
-1.16802e-07
-5.93849e-08
-1.15271e-07
-2.09073e-08
-1.1401e-07
1.74267e-08
-1.13051e-07
5.57303e-08
-1.12432e-07
9.41522e-08
-1.12195e-07
1.32881e-07
-1.12394e-07
1.72115e-07
-1.13045e-07
2.12078e-07
-1.14179e-07
2.52984e-07
-1.15845e-07
2.95083e-07
-1.18071e-07
3.38696e-07
-1.20845e-07
3.84121e-07
-1.24256e-07
4.31547e-07
-1.28455e-07
4.81118e-07
-1.33534e-07
5.32978e-07
-1.39476e-07
5.87261e-07
-1.46159e-07
6.44056e-07
-1.53379e-07
7.03367e-07
-1.60867e-07
7.65073e-07
-1.68267e-07
8.28877e-07
-1.75037e-07
8.94233e-07
-1.80282e-07
9.60219e-07
-1.82318e-07
1.0255e-06
-1.78423e-07
1.08854e-06
-1.61371e-07
-1.15843e-07
1.1553e-06
-1.21897e-08
-7.21784e-09
-2.78257e-08
1.13334e-08
-4.44199e-08
2.59192e-08
-6.1601e-08
3.83254e-08
-7.93901e-08
4.93091e-08
-9.79397e-08
5.91076e-08
-1.1744e-07
6.78049e-08
-1.38062e-07
7.54632e-08
-1.5992e-07
8.21737e-08
-1.83067e-07
8.80615e-08
-2.07504e-07
9.32719e-08
-2.33198e-07
9.7953e-08
-2.60098e-07
1.02242e-07
-2.88152e-07
1.06256e-07
-3.17302e-07
1.10094e-07
-3.47499e-07
1.13829e-07
-3.78684e-07
1.17518e-07
-4.10801e-07
1.21198e-07
-4.43772e-07
1.24885e-07
-4.77507e-07
1.28578e-07
-5.11879e-07
1.32248e-07
-5.46746e-07
1.35837e-07
-5.81942e-07
1.3926e-07
-6.17323e-07
1.42418e-07
-6.52785e-07
1.45207e-07
-6.883e-07
1.47555e-07
-7.23844e-07
1.49476e-07
-7.59193e-07
1.51097e-07
-7.94084e-07
1.52506e-07
-8.28334e-07
1.53697e-07
-8.61853e-07
1.54616e-07
-8.94835e-07
1.55164e-07
-9.27661e-07
1.55333e-07
-9.60515e-07
1.55189e-07
-9.93197e-07
1.54816e-07
-1.0258e-06
1.54231e-07
-1.0584e-06
1.5354e-07
-1.09084e-06
1.52867e-07
-1.12301e-06
1.52224e-07
-1.15499e-06
1.51559e-07
-1.18679e-06
1.50868e-07
-1.21844e-06
1.50158e-07
-1.24994e-06
1.49434e-07
-1.28129e-06
1.48698e-07
-1.31248e-06
1.4795e-07
-1.34353e-06
1.47186e-07
-1.37444e-06
1.46404e-07
-1.40518e-06
1.45598e-07
-1.43578e-06
1.44764e-07
-1.4662e-06
1.43896e-07
-1.49645e-06
1.42988e-07
-1.52651e-06
1.42033e-07
-1.55637e-06
1.41026e-07
-1.58601e-06
1.39958e-07
-1.61541e-06
1.38824e-07
-1.64455e-06
1.37616e-07
-1.67342e-06
1.36326e-07
-1.70198e-06
1.34948e-07
-1.73023e-06
1.33475e-07
-1.75813e-06
1.31899e-07
-1.78565e-06
1.30215e-07
-1.81277e-06
1.28417e-07
-1.83945e-06
1.26498e-07
-1.86568e-06
1.24452e-07
-1.89142e-06
1.22275e-07
-1.91663e-06
1.1996e-07
-1.94128e-06
1.17505e-07
-1.96534e-06
1.14903e-07
-1.98878e-06
1.12151e-07
-2.01155e-06
1.09246e-07
-2.03362e-06
1.06184e-07
-2.05496e-06
1.02962e-07
-2.07553e-06
9.95773e-08
-2.09528e-06
9.60275e-08
-2.11419e-06
9.23106e-08
-2.13221e-06
8.8425e-08
-2.1493e-06
8.43696e-08
-2.16542e-06
8.01435e-08
-2.18054e-06
7.57461e-08
-2.19462e-06
7.1177e-08
-2.20761e-06
6.64366e-08
-2.21949e-06
6.15253e-08
-2.23021e-06
5.64442e-08
-2.23973e-06
5.11949e-08
-2.24803e-06
4.578e-08
-2.25507e-06
4.02028e-08
-2.26081e-06
3.44679e-08
-2.26524e-06
2.85812e-08
-2.26832e-06
2.25503e-08
-2.27003e-06
1.63848e-08
-2.27033e-06
1.00964e-08
-2.2692e-06
3.69904e-09
-2.26659e-06
-2.79662e-09
-2.26244e-06
-9.38943e-09
-2.25672e-06
-1.60879e-08
-2.2494e-06
-2.28944e-08
-2.24044e-06
-2.97997e-08
-2.22983e-06
-3.67909e-08
-2.21755e-06
-4.38554e-08
-2.20358e-06
-5.09789e-08
-2.18791e-06
-5.81474e-08
-2.17054e-06
-6.53455e-08
-2.15145e-06
-7.25576e-08
-2.13065e-06
-7.97677e-08
-2.10814e-06
-8.69591e-08
-2.08395e-06
-9.41148e-08
-2.05806e-06
-1.01217e-07
-2.03052e-06
-1.08246e-07
-2.00134e-06
-1.15184e-07
-1.97056e-06
-1.2201e-07
-1.93819e-06
-1.28703e-07
-1.9043e-06
-1.35245e-07
-1.86891e-06
-1.41612e-07
-1.83207e-06
-1.47785e-07
-1.79385e-06
-1.53743e-07
-1.7543e-06