/*--------------------------------*- C++ -*----------------------------------*\
  =========                 |
  \\      /  F ield         | OpenFOAM: The Open Source CFD Toolbox
   \\    /   O peration     | Website:  https://openfoam.org
    \\  /    A nd           | Version:  7
     \\/     M anipulation  |
\*---------------------------------------------------------------------------*/
FoamFile
{
    version     2.0;
    format      ascii;
    class       volVectorField;
    location    "200";
    object      U;
}
// * * * * * * * * * * * * * * * * * * * * * * * * * * * * * * * * * * * * * //

dimensions      [0 1 -1 0 0 0 0];

internalField   nonuniform List<vector> 
12225
(
(9.85697 -0.886445 0)
(9.66664 -0.740745 0)
(9.4557 -0.429481 0)
(9.22451 -0.222211 0)
(9.00645 -0.106454 0)
(8.81432 -0.0458634 0)
(8.64739 -0.0151697 0)
(8.50518 0.000457701 0)
(8.38346 0.00839553 0)
(8.28065 0.0122901 0)
(8.19215 0.0140052 0)
(8.11589 0.0150201 0)
(8.04897 0.0154273 0)
(7.98978 0.0156344 0)
(7.93616 0.0157357 0)
(7.88938 0.0156356 0)
(7.83419 0.0179227 0)
(7.82471 0.0124784 0)
(10.0545 0.227567 0)
(10.121 0.326913 0)
(10.1196 0.261574 0)
(10.0856 0.186545 0)
(10.0434 0.134674 0)
(9.9967 0.101123 0)
(9.94398 0.0792979 0)
(9.8852 0.0645798 0)
(9.82383 0.0542787 0)
(9.76127 0.0466983 0)
(9.69977 0.0409436 0)
(9.6399 0.0364079 0)
(9.58254 0.0327709 0)
(9.52805 0.0299505 0)
(9.4761 0.0275222 0)
(9.42841 0.0268107 0)
(9.38043 0.0239031 0)
(9.34652 0.0339125 0)
(10.0035 0.0579192 0)
(10.0303 0.05601 0)
(10.0561 0.0337853 0)
(10.0703 0.0329043 0)
(10.077 0.0406563 0)
(10.0778 0.0465572 0)
(10.0725 0.0493753 0)
(10.0613 0.0503259 0)
(10.0461 0.0502317 0)
(10.0276 0.0495288 0)
(10.0071 0.0485008 0)
(9.9848 0.0473594 0)
(9.96161 0.0462101 0)
(9.93788 0.0452013 0)
(9.91385 0.0442323 0)
(9.89032 0.043972 0)
(9.86679 0.0433661 0)
(9.84507 0.0461795 0)
(9.99779 0.0110548 0)
(10.011 0.0266123 0)
(10.035 0.0371578 0)
(10.0525 0.0480959 0)
(10.0643 0.0554664 0)
(10.0734 0.0582029 0)
(10.0795 0.0583785 0)
(10.0823 0.0576443 0)
(10.0827 0.0566063 0)
(10.0811 0.0554255 0)
(10.078 0.054175 0)
(10.0736 0.0529772 0)
(10.0682 0.0518338 0)
(10.062 0.0508598 0)
(10.0551 0.0499721 0)
(10.0481 0.049599 0)
(10.0409 0.0491364 0)
(10.034 0.0499417 0)
(9.99935 0.00719968 0)
(10.009 0.0316599 0)
(10.0275 0.0439316 0)
(10.0418 0.0499362 0)
(10.0528 0.0536299 0)
(10.0628 0.0552601 0)
(10.0715 0.0555474 0)
(10.0783 0.0552674 0)
(10.0834 0.0547376 0)
(10.0872 0.0540523 0)
(10.0899 0.0532695 0)
(10.0918 0.0524884 0)
(10.0929 0.0517315 0)
(10.0935 0.051084 0)
(10.0936 0.0505157 0)
(10.0935 0.0502434 0)
(10.0933 0.049989 0)
(10.0933 0.0501345 0)
(10.0003 0.00918046 0)
(10.0083 0.0311766 0)
(10.0227 0.0409551 0)
(10.0349 0.0454091 0)
(10.045 0.0490596 0)
(10.0547 0.0514013 0)
(10.0637 0.052391 0)
(10.0713 0.0526355 0)
(10.0778 0.0525169 0)
(10.0833 0.052175 0)
(10.0881 0.0516886 0)
(10.0923 0.0511499 0)
(10.0959 0.0506008 0)
(10.099 0.0501037 0)
(10.1019 0.0496563 0)
(10.1045 0.0493536 0)
(10.1072 0.0490623 0)
(10.11 0.048794 0)
(10.0005 0.00894737 0)
(10.0071 0.0270934 0)
(10.0191 0.0364264 0)
(10.0302 0.0414093 0)
(10.0396 0.0454391 0)
(10.0486 0.0481118 0)
(10.0572 0.0493903 0)
(10.0649 0.0498722 0)
(10.0716 0.0499617 0)
(10.0777 0.0498067 0)
(10.0832 0.049488 0)
(10.0882 0.0490869 0)
(10.0928 0.048652 0)
(10.097 0.048228 0)
(10.101 0.0478212 0)
(10.1049 0.0474629 0)
(10.1087 0.047073 0)
(10.1126 0.0465598 0)
(10.0004 0.00791906 0)
(10.006 0.0233886 0)
(10.0161 0.0327508 0)
(10.0263 0.0381229 0)
(10.0351 0.0421247 0)
(10.0436 0.0448159 0)
(10.0517 0.0462368 0)
(10.0591 0.0468833 0)
(10.0659 0.047122 0)
(10.072 0.0470998 0)
(10.0778 0.0468982 0)
(10.0831 0.0465903 0)
(10.088 0.0462262 0)
(10.0927 0.045839 0)
(10.0972 0.0454355 0)
(10.1016 0.0450157 0)
(10.1059 0.0445213 0)
(10.1102 0.0438549 0)
(10.0004 0.00696388 0)
(10.0051 0.0204378 0)
(10.0137 0.0294712 0)
(10.0229 0.0348857 0)
(10.0312 0.038744 0)
(10.0391 0.0414143 0)
(10.0468 0.0429568 0)
(10.054 0.0437437 0)
(10.0606 0.0441002 0)
(10.0667 0.0441782 0)
(10.0724 0.0440608 0)
(10.0778 0.0438164 0)
(10.0829 0.043493 0)
(10.0878 0.0431176 0)
(10.0924 0.0426948 0)
(10.097 0.0422131 0)
(10.1015 0.0416259 0)
(10.1059 0.0408605 0)
(10.0004 0.00613349 0)
(10.0043 0.0178738 0)
(10.0116 0.0262956 0)
(10.0199 0.0316088 0)
(10.0276 0.0353417 0)
(10.0351 0.0379769 0)
(10.0424 0.0395997 0)
(10.0493 0.0404902 0)
(10.0557 0.0409341 0)
(10.0617 0.0410857 0)
(10.0673 0.0410287 0)
(10.0727 0.040827 0)
(10.0778 0.0405251 0)
(10.0827 0.0401469 0)
(10.0874 0.039696 0)
(10.092 0.039159 0)
(10.0965 0.0384996 0)
(10.1009 0.0376738 0)
(10.0003 0.00537396 0)
(10.0037 0.0155656 0)
(10.0099 0.0232595 0)
(10.0173 0.0283757 0)
(10.0245 0.0319671 0)
(10.0315 0.0345263 0)
(10.0384 0.0361746 0)
(10.0449 0.0371295 0)
(10.0511 0.0376342 0)
(10.057 0.0378379 0)
(10.0625 0.0378236 0)
(10.0678 0.0376498 0)
(10.0729 0.0373582 0)
(10.0777 0.0369708 0)
(10.0824 0.0364921 0)
(10.0869 0.0359115 0)
(10.0913 0.0352028 0)
(10.0956 0.0343461 0)
(10.0003 0.00470912 0)
(10.0032 0.0136255 0)
(10.0086 0.0206146 0)
(10.0152 0.0254662 0)
(10.0219 0.028892 0)
(10.0285 0.031346 0)
(10.035 0.0329755 0)
(10.0413 0.033957 0)
(10.0473 0.034495 0)
(10.053 0.0347291 0)
(10.0584 0.0347396 0)
(10.0636 0.0345813 0)
(10.0686 0.0342928 0)
(10.0734 0.0338955 0)
(10.078 0.0333955 0)
(10.0824 0.0327868 0)
(10.0867 0.0320519 0)
(10.0909 0.0311888 0)
(10.0003 0.0040946 0)
(10.0028 0.0118571 0)
(10.0075 0.0181167 0)
(10.0134 0.0226271 0)
(10.0196 0.0258528 0)
(10.0259 0.028176 0)
(10.032 0.0297538 0)
(10.0381 0.0307342 0)
(10.0438 0.0312867 0)
(10.0494 0.0315371 0)
(10.0547 0.0315621 0)
(10.0597 0.0314127 0)
(10.0646 0.0311248 0)
(10.0693 0.0307197 0)
(10.0738 0.0302052 0)
(10.0781 0.0295806 0)
(10.0823 0.0288352 0)
(10.0863 0.0279808 0)
(10.0002 0.0034598 0)
(10.0024 0.0100191 0)
(10.0064 0.0154372 0)
(10.0117 0.0194815 0)
(10.0174 0.0224234 0)
(10.0232 0.0245558 0)
(10.029 0.0260308 0)
(10.0347 0.0269722 0)
(10.0403 0.0275138 0)
(10.0456 0.0277632 0)
(10.0507 0.0277908 0)
(10.0557 0.0276435 0)
(10.0604 0.0273539 0)
(10.0649 0.0269427 0)
(10.0693 0.0264204 0)
(10.0735 0.0257908 0)
(10.0775 0.0250503 0)
(10.0814 0.0242201 0)
(10.0002 0.00280068 0)
(10.002 0.00810982 0)
(10.0055 0.012586 0)
(10.0101 0.0160343 0)
(10.0153 0.0185901 0)
(10.0206 0.0204561 0)
(10.026 0.0217639 0)
(10.0314 0.022614 0)
(10.0367 0.0231073 0)
(10.0418 0.02333 0)
(10.0467 0.023343 0)
(10.0515 0.0231877 0)
(10.0561 0.0228929 0)
(10.0605 0.0224788 0)
(10.0647 0.0219574 0)
(10.0688 0.0213369 0)
(10.0726 0.0206187 0)
(10.0764 0.0198301 0)
(10.0002 0.00211649 0)
(10.0017 0.00613121 0)
(10.0047 0.00957144 0)
(10.0087 0.0122899 0)
(10.0134 0.0143402 0)
(10.0183 0.0158466 0)
(10.0233 0.0169078 0)
(10.0283 0.0175999 0)
(10.0333 0.0179944 0)
(10.0382 0.0181548 0)
(10.0429 0.0181291 0)
(10.0475 0.0179515 0)
(10.0519 0.0176465 0)
(10.0562 0.0172322 0)
(10.0602 0.0167213 0)
(10.0641 0.0161242 0)
(10.0678 0.0154456 0)
(10.0713 0.0147148 0)
(10.0002 0.0014042 0)
(10.0015 0.00406896 0)
(10.0041 0.00637688 0)
(10.0076 0.00823078 0)
(10.0118 0.00964446 0)
(10.0163 0.0106823 0)
(10.0209 0.011405 0)
(10.0257 0.0118614 0)
(10.0304 0.0120964 0)
(10.035 0.0121506 0)
(10.0395 0.0120568 0)
(10.0439 0.0118393 0)
(10.0481 0.0115169 0)
(10.0522 0.0111039 0)
(10.0561 0.0106118 0)
(10.0598 0.0100506 0)
(10.0633 0.00942616 0)
(10.0667 0.00876597 0)
(10.0001 0.000647267 0)
(10.0013 0.00187095 0)
(10.0036 0.00292967 0)
(10.0069 0.00377617 0)
(10.0107 0.00441127 0)
(10.0149 0.00485738 0)
(10.0192 0.00513744 0)
(10.0237 0.00527129 0)
(10.0281 0.0052781 0)
(10.0326 0.00517591 0)
(10.0369 0.00497991 0)
(10.0411 0.00470236 0)
(10.0451 0.00435335 0)
(10.049 0.00394154 0)
(10.0527 0.00347456 0)
(10.0563 0.00295991 0)
(10.0597 0.0024019 0)
(10.0629 0.00182415 0)
(10.0001 -0.000197565 0)
(10.0013 -0.000585093 0)
(10.0035 -0.000943949 0)
(10.0066 -0.00126699 0)
(10.0103 -0.00155334 0)
(10.0143 -0.00181707 0)
(10.0185 -0.00207596 0)
(10.0228 -0.00234223 0)
(10.0272 -0.00262328 0)
(10.0314 -0.00292495 0)
(10.0356 -0.00325168 0)
(10.0397 -0.00360611 0)
(10.0436 -0.00398907 0)
(10.0473 -0.00440012 0)
(10.0509 -0.00483787 0)
(10.0543 -0.00529972 0)
(10.0576 -0.00578465 0)
(10.0607 -0.00627562 0)
(10.0001 -0.00100603 0)
(10.0013 -0.0029421 0)
(10.0037 -0.00466818 0)
(10.007 -0.00610645 0)
(10.0108 -0.00725349 0)
(10.015 -0.00816916 0)
(10.0193 -0.00891485 0)
(10.0237 -0.00953258 0)
(10.0281 -0.0100567 0)
(10.0324 -0.0105189 0)
(10.0365 -0.010944 0)
(10.0406 -0.0113487 0)
(10.0444 -0.0117443 0)
(10.0481 -0.0121383 0)
(10.0516 -0.0125357 0)
(10.055 -0.0129388 0)
(10.0582 -0.0133499 0)
(10.0612 -0.0137582 0)
(10.0002 -0.00170336 0)
(10.0015 -0.00500072 0)
(10.0041 -0.00792295 0)
(10.0078 -0.0102704 0)
(10.012 -0.0120641 0)
(10.0165 -0.0134541 0)
(10.021 -0.0145464 0)
(10.0256 -0.0153983 0)
(10.0301 -0.0160664 0)
(10.0344 -0.0166095 0)
(10.0386 -0.017072 0)
(10.0427 -0.0174826 0)
(10.0466 -0.0178605 0)
(10.0503 -0.0182195 0)
(10.0538 -0.0185689 0)
(10.0571 -0.0189141 0)
(10.0603 -0.0192595 0)
(10.0633 -0.0195978 0)
(10.0002 -0.00236561 0)
(10.0017 -0.00703492 0)
(10.0047 -0.0111749 0)
(10.009 -0.0143418 0)
(10.0137 -0.0166357 0)
(10.0185 -0.0183668 0)
(10.0234 -0.0196953 0)
(10.0282 -0.0206919 0)
(10.0329 -0.0214381 0)
(10.0374 -0.022015 0)
(10.0417 -0.0224793 0)
(10.0458 -0.0228675 0)
(10.0497 -0.0232062 0)
(10.0534 -0.0235149 0)
(10.0569 -0.0238066 0)
(10.0603 -0.0240891 0)
(10.0634 -0.0243678 0)
(10.0664 -0.0246382 0)
(10.0002 -0.00298545 0)
(10.0018 -0.00909479 0)
(10.0054 -0.0144488 0)
(10.0105 -0.0183364 0)
(10.0159 -0.021079 0)
(10.0212 -0.0230997 0)
(10.0263 -0.0245537 0)
(10.0314 -0.0255663 0)
(10.0363 -0.0262918 0)
(10.041 -0.0268399 0)
(10.0454 -0.0272673 0)
(10.0495 -0.0276096 0)
(10.0535 -0.0278962 0)
(10.0572 -0.0281494 0)
(10.0607 -0.0283835 0)
(10.0641 -0.0286068 0)
(10.0672 -0.0288248 0)
(10.0702 -0.0290351 0)
(10.0001 -0.00353185 0)
(10.0018 -0.0115497 0)
(10.0063 -0.0178855 0)
(10.0123 -0.0219826 0)
(10.0183 -0.0250489 0)
(10.0241 -0.0274576 0)
(10.0297 -0.029095 0)
(10.0351 -0.0301043 0)
(10.0402 -0.030756 0)
(10.0449 -0.031215 0)
(10.0494 -0.0315488 0)
(10.0537 -0.0317982 0)
(10.0577 -0.0319969 0)
(10.0615 -0.0321688 0)
(10.065 -0.0323275 0)
(10.0683 -0.0324803 0)
(10.0714 -0.0326307 0)
(10.0744 -0.0327752 0)
(9.99991 -0.00338081 0)
(10.0016 -0.0149672 0)
(10.0073 -0.0227249 0)
(10.0142 -0.0262365 0)
(10.0206 -0.0288233 0)
(10.0269 -0.0311883 0)
(10.0331 -0.0329093 0)
(10.039 -0.0339969 0)
(10.0445 -0.0346962 0)
(10.0495 -0.0351596 0)
(10.0541 -0.0354575 0)
(10.0584 -0.0356441 0)
(10.0624 -0.0357656 0)
(10.0661 -0.0358528 0)
(10.0695 -0.0359238 0)
(10.0727 -0.0359885 0)
(10.0756 -0.0360518 0)
(10.0783 -0.0361122 0)
(9.9986 -0.000398132 0)
(9.99909 -0.0157558 0)
(10.0076 -0.0274289 0)
(10.0166 -0.0324898 0)
(10.0238 -0.0348661 0)
(10.0307 -0.0362215 0)
(10.0376 -0.036973 0)
(10.0441 -0.0374394 0)
(10.0499 -0.0377876 0)
(10.055 -0.0380345 0)
(10.0596 -0.0381793 0)
(10.0637 -0.0382472 0)
(10.0673 -0.0382681 0)
(10.0704 -0.0382633 0)
(10.0732 -0.0382481 0)
(10.0756 -0.0382306 0)
(10.0778 -0.038215 0)
(10.0796 -0.038199 0)
(9.99488 0.00133555 0)
(9.99288 -0.00809215 0)
(10.006 -0.0203508 0)
(10.0202 -0.0322756 0)
(10.0307 -0.0404773 0)
(10.0393 -0.0441483 0)
(10.0467 -0.0450602 0)
(10.0529 -0.0449151 0)
(10.0578 -0.0444477 0)
(10.0617 -0.0438517 0)
(10.0647 -0.0432068 0)
(10.0668 -0.04257 0)
(10.0683 -0.0419755 0)
(10.0691 -0.0414315 0)
(10.0695 -0.0409478 0)
(10.0693 -0.0405207 0)
(10.0689 -0.0401475 0)
(10.0681 -0.0398028 0)
(9.99473 -0.0305614 0)
(9.99925 -0.0228715 0)
(10.0147 -0.00263482 0)
(10.0304 -0.00190862 0)
(10.0434 -0.0116577 0)
(10.0533 -0.020921 0)
(10.0594 -0.0272776 0)
(10.0619 -0.031505 0)
(10.0615 -0.0342794 0)
(10.0591 -0.0359754 0)
(10.0551 -0.036907 0)
(10.0498 -0.0373404 0)
(10.0435 -0.037466 0)
(10.0365 -0.0374035 0)
(10.029 -0.0372434 0)
(10.021 -0.0370408 0)
(10.0129 -0.0368607 0)
(10.0047 -0.0366718 0)
(10.0273 -0.182758 0)
(10.0763 -0.288313 0)
(10.0872 -0.247755 0)
(10.0777 -0.186519 0)
(10.0664 -0.140296 0)
(10.0538 -0.108221 0)
(10.0365 -0.0858806 0)
(10.0145 -0.0704202 0)
(9.9894 -0.059651 0)
(9.96237 -0.0518768 0)
(9.93441 -0.0460544 0)
(9.90609 -0.0415568 0)
(9.87792 -0.0380008 0)
(9.85022 -0.0351259 0)
(9.82324 -0.0327597 0)
(9.79708 -0.0308392 0)
(9.77199 -0.0293231 0)
(9.748 -0.0285043 0)
(9.93574 0.689319 0)
(9.86861 0.609605 0)
(9.76454 0.380624 0)
(9.62665 0.217442 0)
(9.48591 0.119268 0)
(9.35723 0.0631874 0)
(9.24271 0.0315762 0)
(9.14117 0.0136166 0)
(9.05149 0.00326373 0)
(8.97252 -0.00279745 0)
(8.90262 -0.00635296 0)
(8.84046 -0.00847219 0)
(8.78476 -0.00972304 0)
(8.73466 -0.0104692 0)
(8.68924 -0.0109725 0)
(8.64791 -0.0112421 0)
(8.60972 -0.0114495 0)
(8.57438 -0.0121106 0)
(0.0070205 -0.0161846 -8.41956e-19)
(0.0206048 -0.0199132 6.44158e-19)
(0.0296592 -0.0129609 0)
(0.0330633 -0.00331671 0)
(0.030197 0.00539011 0)
(0.0223607 0.0118546 -2.89436e-19)
(0.0108223 0.0160987 0)
(-0.00335569 0.018633 0)
(-0.0193849 0.0200559 0)
(-0.0367613 0.0208536 0)
(-0.0551498 0.0213441 1.56718e-19)
(-0.0743428 0.0217057 0)
(-0.0942187 0.0220317 0)
(-0.114702 0.0223633 0)
(-0.135743 0.0227164 0)
(-0.157308 0.0230913 1.02346e-19)
(-0.179388 0.0234901 0)
(-0.201968 0.0239279 0)
(-0.22505 0.0244363 0)
(-0.248695 0.0250533 0)
(-0.272962 0.0258534 0)
(-0.297884 0.0269447 0)
(-0.323597 0.0283044 0)
(-0.35029 0.0298947 7.93353e-20)
(-0.377905 0.0315347 -7.86649e-20)
(-0.406009 0.0282851 7.70369e-20)
(-0.4341 0.0186689 7.43742e-20)
(-0.460306 0.0164821 0)
(-0.486838 0.0249306 0)
(-0.517405 0.0355196 -6.6407e-20)
(-0.550274 0.0508462 -6.44109e-20)
(-0.585958 0.0721897 0)
(-0.626155 0.0592468 0)
(-0.666941 0.034455 -9.327e-20)
(-0.702244 0.0437213 0)
(-0.742435 0.0410086 0)
(-0.781247 0.0275781 7.98076e-20)
(-0.817243 0.0262748 0)
(-0.852872 0.0343795 7.51164e-20)
(-0.892333 0.0351991 1.45495e-19)
(-0.931522 0.0353102 0)
(-0.970926 0.0352392 0)
(-1.01044 0.0351428 0)
(-1.05005 0.0349849 0)
(-1.08971 0.0347839 0)
(-1.12936 0.0345452 1.21646e-19)
(-1.16898 0.0342828 1.18471e-19)
(-1.20855 0.034004 1.15482e-19)
(-1.24804 0.033714 0)
(-1.28745 0.0334165 -1.10005e-19)
(-1.32675 0.0331125 0)
(-1.36595 0.0328033 1.05106e-19)
(-1.40502 0.0324885 1.02845e-19)
(-1.44396 0.0321679 0)
(-1.48274 0.0318398 0)
(-1.52137 0.0315034 0)
(-1.55981 0.0311569 9.48359e-20)
(-1.59804 0.0307993 0)
(-1.63606 0.0304287 0)
(-1.67382 0.0300437 0)
(-1.71132 0.029643 0)
(-1.74852 0.0292254 0)
(-1.78538 0.0287891 0)
(-1.82189 0.0283333 0)
(-1.85801 0.0278564 0)
(-1.89369 0.0273578 -8.11298e-20)
(-1.92892 0.0268364 0)
(-1.96364 0.0262917 0)
(-1.99782 0.025723 7.74525e-20)
(-2.03141 0.02513 7.62964e-20)
(-2.06438 0.0245121 0)
(-2.09669 0.0238688 -7.40735e-20)
(-2.12827 0.0231998 7.30017e-20)
(-2.15911 0.022505 0)
(-2.18913 0.0217841 -7.09247e-20)
(-2.21831 0.021037 0)
(-2.24658 0.0202642 0)
(-2.27391 0.0194654 6.79444e-20)
(-2.30023 0.0186403 0)
(-2.32551 0.0177876 -6.6024e-20)
(-2.34969 0.0169069 0)
(-2.37271 0.015996 6.41383e-20)
(-2.39453 0.0150524 6.3204e-20)
(-2.41509 0.014072 6.22725e-20)
(-2.43433 0.0130501 1.22685e-19)
(-2.4522 0.0119798 -1.20825e-19)
(-2.46863 0.0108536 0)
(-2.48355 0.00966274 0)
(-2.49689 0.00840057 0)
(-2.50856 0.00706539 -1.13313e-19)
(-2.51849 0.00566834 -1.11409e-19)
(-2.52658 0.00424321 1.09494e-19)
(-2.53269 0.00283688 0)
(-2.5367 0.00149353 -1.05628e-19)
(-2.5385 0.000286521 -1.03606e-19)
(-2.5386 -0.000807092 -1.01539e-19)
(-2.53695 -0.00187426 0)
(-2.53358 -0.00293475 0)
(-2.52848 -0.00399822 0)
(-2.52162 -0.00506517 -9.27483e-20)
(-2.513 -0.00613468 0)
(-2.5026 -0.00720594 0)
(-2.4904 -0.00827766 8.54881e-20)
(-2.4764 -0.00934849 0)
(-2.46059 -0.010417 0)
(-2.44297 -0.0114814 7.75313e-20)
(-2.42355 -0.0125401 0)
(-2.40234 -0.0135903 0)
(-2.37934 -0.0146306 -6.87646e-20)
(-2.35457 -0.0156573 -6.56434e-20)
(-2.32806 -0.0166691 0)
(-2.29984 -0.0176617 5.90793e-20)
(-2.26993 -0.0186339 0)
(-2.23838 -0.0195813 -5.20617e-20)
(-2.20521 -0.020503 0)
(-2.1705 -0.0213939 -4.45636e-20)
(-2.13427 -0.022253 -4.06267e-20)
(-2.09661 -0.0230748 0)
(-2.05756 -0.0238578 0)
(-2.01719 -0.0245942 0)
(-1.97557 -0.0252938 0)
(-1.93276 -0.0259598 0)
(-1.88883 -0.0265752 0)
(-1.84387 -0.0271421 0)
(-1.79798 -0.0276714 -4.28657e-21)
(-1.75123 -0.0281475 -8.90301e-22)
(-1.70371 -0.0285757 0)
(-1.65551 -0.0289507 0)
(-1.60672 -0.0292744 0)
(-1.55741 -0.0295387 0)
(-1.50769 -0.0297469 -5.78926e-20)
(-1.45765 -0.0298928 0)
(-1.40738 -0.0299795 8.23532e-20)
(-1.35698 -0.0300027 -9.50071e-20)
(-1.30654 -0.0299653 0)
(-1.25615 -0.0298651 0)
(-1.2059 -0.0297031 0)
(-1.15587 -0.0294771 1.48364e-19)
(-1.10612 -0.0291873 1.62378e-19)
(-1.05676 -0.0288396 0)
(-1.00785 -0.0284409 1.91207e-19)
(-0.959462 -0.0279993 2.06011e-19)
(-0.911655 -0.027518 -2.21068e-19)
(-0.864472 -0.0269988 0)
(-0.817953 -0.026443 0)
(-0.772133 -0.0258554 -2.67722e-19)
(-0.727042 -0.0252396 0)
(-0.682696 -0.0246009 0)
(-0.639107 -0.0239418 0)
(-0.596276 -0.023269 0)
(-0.554196 -0.022587 3.50345e-19)
(-0.512847 -0.0219033 3.67625e-19)
(-0.472203 -0.0212204 0)
(-0.432228 -0.0205459 4.03029e-19)
(-0.392875 -0.0198868 0)
(-0.354084 -0.0192521 0)
(-0.315788 -0.0186463 4.5866e-19)
(-0.277907 -0.0180826 0)
(-0.240347 -0.0175708 4.97974e-19)
(-0.203005 -0.0171191 0)
(-0.165769 -0.0167428 0)
(-0.128487 -0.0164739 5.62003e-19)
(-0.0910143 -0.0163395 0)
(-0.0532623 -0.0163481 6.09855e-19)
(-0.0151113 -0.0164519 0)
(0.0233805 -0.0164401 0)
(0.0615632 -0.0161086 0)
(0.0998755 -0.0157384 -6.41888e-19)
(0.139385 -0.0156517 0)
(0.180394 -0.0158546 6.13802e-19)
(0.223341 -0.0163027 0)
(0.268602 -0.0169307 0)
(0.316473 -0.0176864 0)
(0.367147 -0.0185304 0)
(0.420721 -0.0193998 0)
(0.476744 -0.0201383 0)
(0.535352 -0.0204692 0)
(0.591465 -0.0197913 -1.04094e-18)
(0.653605 -0.0166207 0)
(0.661836 0.0019946 0)
(0.00453136 -0.0412051 1.88566e-18)
(0.00814509 -0.0314097 -9.87429e-19)
(0.00567475 -0.0132611 0)
(-6.61853e-07 0.00394314 2.99008e-19)
(-0.00827656 0.0187968 0)
(-0.0191257 0.0307305 1.10952e-19)
(-0.0323871 0.0397789 -2.01251e-19)
(-0.0478685 0.0463652 -1.84833e-19)
(-0.0652963 0.0510664 0)
(-0.0843758 0.0544395 -1.58999e-19)
(-0.10485 0.0569296 -7.43596e-20)
(-0.126517 0.0588536 0)
(-0.149233 0.0604206 0)
(-0.172904 0.0617631 0)
(-0.197482 0.0629631 0)
(-0.222955 0.0640719 -5.71831e-20)
(-0.249342 0.0651245 0)
(-0.276677 0.0661516 1.06531e-19)
(-0.30502 0.0671836 0)
(-0.33444 0.0682577 0)
(-0.364969 0.0694359 -9.98051e-20)
(-0.396655 0.070796 0)
(-0.429572 0.072372 9.81232e-20)
(-0.463679 0.0741423 -4.90199e-20)
(-0.498566 0.0760427 4.89519e-20)
(-0.534753 0.0776578 -4.85664e-20)
(-0.573053 0.078789 -4.76743e-20)
(-0.613341 0.080258 0)
(-0.654575 0.0824274 0)
(-0.695127 0.0846034 4.50756e-20)
(-0.735379 0.0859798 -4.47869e-20)
(-0.773484 0.0871524 0)
(-0.812995 0.0879137 0)
(-0.852861 0.088676 4.62188e-20)
(-0.892788 0.0907721 0)
(-0.93083 0.091502 0)
(-0.969733 0.0912679 -4.02416e-20)
(-1.0094 0.0911657 0)
(-1.04867 0.0914516 3.79582e-20)
(-1.08665 0.0914016 -7.43484e-20)
(-1.12422 0.0910147 0)
(-1.16143 0.0904407 0)
(-1.19833 0.0897321 -1.38648e-19)
(-1.23494 0.0889337 -1.35736e-19)
(-1.2713 0.0880702 -1.3297e-19)
(-1.30742 0.0871618 6.501e-20)
(-1.34332 0.0862222 -6.40757e-20)
(-1.37899 0.0852611 -1.88321e-19)
(-1.41444 0.0842839 1.23157e-19)
(-1.44967 0.0832941 6.06438e-20)
(-1.48466 0.082292 0)
(-1.51942 0.0812777 -5.85907e-20)
(-1.55393 0.0802492 5.73116e-20)
(-1.58818 0.079205 0)
(-1.62216 0.0781418 0)
(-1.65585 0.0770567 0)
(-1.68923 0.0759465 -5.40972e-20)
(-1.72228 0.0748085 0)
(-1.75499 0.0736392 1.0471e-19)
(-1.78733 0.0724359 0)
(-1.81928 0.0711959 1.01716e-19)
(-1.85081 0.0699169 0)
(-1.88189 0.0685965 -9.88829e-20)
(-1.91249 0.0672325 0)
(-1.94259 0.0658229 9.61862e-20)
(-1.97216 0.064366 -4.73073e-20)
(-2.00115 0.0628607 0)
(-2.02955 0.0613058 -9.23504e-20)
(-2.05731 0.0597009 -4.56835e-20)
(-2.0844 0.0580451 -4.50735e-20)
(-2.11078 0.0563382 0)
(-2.13642 0.0545796 -4.36492e-20)
(-2.16129 0.0527694 -4.32888e-20)
(-2.18533 0.0509074 0)
(-2.20853 0.0489941 4.21267e-20)
(-2.23083 0.0470296 -8.29076e-20)
(-2.25219 0.0450153 0)
(-2.27259 0.0429519 -4.04057e-20)
(-2.29197 0.0408405 0)
(-2.3103 0.0386811 1.17631e-19)
(-2.32753 0.0364747 0)
(-2.34364 0.0342218 -1.14206e-19)
(-2.35856 0.0319231 -3.75339e-20)
(-2.37228 0.0295782 3.68417e-20)
(-2.38474 0.0271875 7.25326e-20)
(-2.39591 0.0247502 -7.13712e-20)
(-2.40576 0.022265 0)
(-2.41425 0.0197287 0)
(-2.42136 0.0171362 0)
(-2.42706 0.0144796 1.99858e-19)
(-2.43138 0.0117532 6.53643e-20)
(-2.43433 0.0089667 -6.40794e-20)
(-2.43599 0.00615688 0)
(-2.43642 0.00338853 -6.15105e-20)
(-2.43575 0.000748285 6.00557e-20)
(-2.43356 -0.00177849 5.86453e-20)
(-2.42976 -0.00426459 0)
(-2.42431 -0.00672726 0)
(-2.41717 -0.00917518 0)
(-2.40831 -0.0116087 5.27129e-20)
(-2.39773 -0.0140245 0)
(-2.3854 -0.0164188 -9.94579e-20)
(-2.37132 -0.0187863 -1.44159e-19)
(-2.35548 -0.0211227 9.29402e-20)
(-2.33786 -0.0234234 0)
(-2.31849 -0.0256835 4.33175e-20)
(-2.29735 -0.0278986 0)
(-2.27447 -0.0300634 7.89986e-20)
(-2.24985 -0.032173 -3.79744e-20)
(-2.22352 -0.0342217 -3.61125e-20)
(-2.19549 -0.0362048 0)
(-2.1658 -0.0381162 -9.52781e-20)
(-2.13448 -0.0399516 5.97584e-20)
(-2.10157 -0.0417046 2.74125e-20)
(-2.06712 -0.0433719 0)
(-2.03117 -0.0449472 2.31571e-20)
(-1.99378 -0.046428 6.38651e-20)
(-1.95501 -0.0478089 0)
(-1.91492 -0.0490876 3.39957e-20)
(-1.87358 -0.0502587 2.94368e-20)
(-1.83104 -0.0513217 2.48073e-20)
(-1.7874 -0.0522787 0)
(-1.74272 -0.0531347 0)
(-1.69709 -0.0538775 0)
(-1.65059 -0.0545048 -3.42594e-21)
(-1.60331 -0.0550243 2.33716e-22)
(-1.55535 -0.0554476 0)
(-1.50677 -0.0557622 9.22298e-21)
(-1.45768 -0.0559697 1.42565e-20)
(-1.40816 -0.0560657 0)
(-1.35829 -0.0560552 2.56672e-20)
(-1.30818 -0.0559346 5.89739e-20)
(-1.25792 -0.0557098 -3.58619e-20)
(-1.20759 -0.0553796 -3.84048e-20)
(-1.15728 -0.0549508 0)
(-1.10708 -0.0544252 0)
(-1.05708 -0.0538083 0)
(-1.00734 -0.0531011 -6.11413e-20)
(-0.957931 -0.0523088 6.3661e-20)
(-0.908929 -0.0514392 1.39648e-19)
(-0.860401 -0.0505074 -7.58982e-20)
(-0.81241 -0.0495267 7.8399e-20)
(-0.765009 -0.0485093 8.5461e-20)
(-0.718237 -0.0474595 0)
(-0.672128 -0.0463852 0)
(-0.626708 -0.0452919 -9.71903e-20)
(-0.581993 -0.0441911 0)
(-0.537993 -0.0430884 0)
(-0.494707 -0.0419943 2.22648e-19)
(-0.452124 -0.0409143 0)
(-0.410226 -0.0398617 1.18706e-19)
(-0.368982 -0.0388422 -1.24275e-19)
(-0.328352 -0.0378672 0)
(-0.288285 -0.036942 1.30297e-19)
(-0.248719 -0.0360827 0)
(-0.20958 -0.0352936 0)
(-0.170779 -0.0345864 -1.41904e-19)
(-0.132214 -0.0339713 2.8907e-19)
(-0.0937686 -0.0334662 -1.4808e-19)
(-0.0553121 -0.0330719 0)
(-0.0166976 -0.0328029 0)
(0.0221881 -0.0326501 1.55442e-19)
(0.0613731 -0.0325698 0)
(0.101117 -0.0325688 1.56248e-19)
(0.141784 -0.0326679 0)
(0.183731 -0.032793 0)
(0.227357 -0.0329959 0)
(0.272935 -0.0334728 1.55417e-19)
(0.320597 -0.0343223 0)
(0.370528 -0.0355168 -1.54831e-19)
(0.422953 -0.036993 0)
(0.478088 -0.0386657 0)
(0.536089 -0.0404533 3.08376e-19)
(0.596991 -0.042256 -3.08561e-19)
(0.660683 -0.0439311 0)
(0.726651 -0.0452162 0)
(0.794544 -0.0455454 0)
(0.860829 -0.0440149 9.45426e-19)
(0.929993 -0.0372297 0)
(0.970783 -0.0139589 -6.61118e-19)
(-0.00249515 -0.0431591 -1.02404e-21)
(-0.00764754 -0.0194329 9.40683e-19)
(-0.0164105 0.0043184 0)
(-0.0273907 0.0250851 -3.75746e-19)
(-0.0398525 0.0430017 0)
(-0.0535586 0.0581347 0)
(-0.0686141 0.0705695 3.36161e-23)
(-0.0851471 0.0805347 1.1689e-19)
(-0.103199 0.0883983 1.10143e-19)
(-0.122729 0.0945931 1.0452e-19)
(-0.14365 0.0995402 0)
(-0.165861 0.103602 0)
(-0.189267 0.107065 -9.13179e-20)
(-0.213795 0.110146 -1.75735e-19)
(-0.239396 0.113007 1.69623e-19)
(-0.266044 0.115766 0)
(-0.293736 0.118518 1.5959e-19)
(-0.322479 0.121338 -7.7833e-20)
(-0.352284 0.124285 0)
(-0.383165 0.127405 1.49574e-19)
(-0.415106 0.130723 7.37273e-20)
(-0.448051 0.134224 -1.45597e-19)
(-0.481893 0.137843 -7.19674e-20)
(-0.516479 0.141406 0)
(-0.551639 0.144643 1.39637e-19)
(-0.587394 0.147168 1.36752e-19)
(-0.623957 0.148924 0)
(-0.661234 0.150789 1.30237e-19)
(-0.698513 0.153003 0)
(-0.735025 0.155294 1.24532e-19)
(-0.770623 0.15755 6.14192e-20)
(-0.805109 0.158964 0)
(-0.839228 0.158589 0)
(-0.873437 0.157102 0)
(-0.907403 0.15585 0)
(-0.940872 0.153751 0)
(-0.974679 0.1511 0)
(-1.00887 0.149072 1.03378e-19)
(-1.04283 0.147605 -1.51629e-19)
(-1.07622 0.146053 0)
(-1.10926 0.144463 0)
(-1.14206 0.142854 0)
(-1.17464 0.141231 1.4828e-22)
(-1.20704 0.139594 9.13559e-20)
(-1.23926 0.137942 1.79171e-19)
(-1.27131 0.136279 -1.75931e-19)
(-1.30321 0.134605 -8.63301e-20)
(-1.33495 0.132922 8.5008e-20)
(-1.36655 0.131231 -1.70534e-22)
(-1.39798 0.129529 8.20292e-20)
(-1.42925 0.127814 0)
(-1.46035 0.126083 7.94202e-20)
(-1.49127 0.124331 -1.75132e-22)
(-1.52199 0.122553 0)
(-1.5525 0.120746 0)
(-1.58278 0.118903 -7.46989e-20)
(-1.61282 0.117021 0)
(-1.6426 0.115093 0)
(-1.6721 0.113117 7.13346e-20)
(-1.70129 0.111088 1.40996e-19)
(-1.73015 0.109001 -6.9682e-20)
(-1.75865 0.106853 0)
(-1.78678 0.104642 6.77711e-20)
(-1.81449 0.102364 0)
(-1.84177 0.100017 6.56132e-20)
(-1.86859 0.097599 6.50386e-20)
(-1.8949 0.0951077 -1.28007e-19)
(-1.92069 0.0925421 -6.29877e-20)
(-1.94591 0.0899015 0)
(-1.97054 0.087185 1.22879e-19)
(-1.99454 0.0843923 0)
(-2.01787 0.0815232 1.79458e-19)
(-2.04051 0.0785778 1.17905e-19)
(-2.0624 0.0755564 1.16269e-19)
(-2.08352 0.0724597 -1.14641e-19)
(-2.10382 0.0692886 1.69638e-19)
(-2.12328 0.0660446 0)
(-2.14184 0.062729 0)
(-2.15948 0.0593433 -1.08153e-19)
(-2.17614 0.0558886 -1.59877e-19)
(-2.1918 0.0523669 0)
(-2.20642 0.0487794 5.16992e-20)
(-2.21995 0.0451283 0)
(-2.23236 0.0414153 -1.49964e-19)
(-2.24362 0.0376431 -9.91583e-23)
(-2.25369 0.0338145 8.28207e-23)
(-2.26253 0.0299336 9.48514e-20)
(-2.27013 0.0260053 0)
(-2.27645 0.0220367 -9.13661e-20)
(-2.28148 0.0180375 -1.09376e-23)
(-2.28522 0.0140226 0)
(-2.28764 0.0100132 0)
(-2.28872 0.00603133 0)
(-2.28843 0.00208782 8.21137e-20)
(-2.28669 -0.00184313 0)
(-2.28342 -0.00577921 0)
(-2.2786 -0.00970791 0)
(-2.27217 -0.0136224 0)
(-2.26411 -0.0175175 0)
(-2.2544 -0.0213873 6.98986e-20)
(-2.24303 -0.0252247 0)
(-2.22996 -0.0290222 6.52694e-20)
(-2.2152 -0.0327717 6.29985e-20)
(-2.19874 -0.0364655 -6.06874e-20)
(-2.18057 -0.0400954 0)
(-2.1607 -0.043654 -5.59424e-20)
(-2.13913 -0.0471328 0)
(-2.11588 -0.0505239 -5.10316e-20)
(-2.09095 -0.0538184 4.85139e-20)
(-2.06436 -0.0570083 1.38761e-19)
(-2.03616 -0.0600846 0)
(-2.00635 -0.0630393 1.23137e-19)
(-1.97497 -0.0658639 3.90744e-20)
(-1.94208 -0.0685506 0)
(-1.9077 -0.0710917 6.6258e-20)
(-1.87188 -0.0734802 6.07233e-20)
(-1.8347 -0.0757097 -8.20742e-20)
(-1.79619 -0.0777749 0)
(-1.75643 -0.0796694 -2.12186e-20)
(-1.71547 -0.0813877 -1.83101e-20)
(-1.67339 -0.0829264 -4.74923e-20)
(-1.63027 -0.0842869 0)
(-1.58617 -0.0854775 0)
(-1.54118 -0.0864968 0)
(-1.49538 -0.0873301 -4.93076e-21)
(-1.44887 -0.0879835 0)
(-1.40171 -0.0884723 0)
(-1.35401 -0.0887923 -5.57353e-21)
(-1.30583 -0.0889402 -8.58321e-21)
(-1.25728 -0.0889158 0)
(-1.20842 -0.0887214 0)
(-1.15935 -0.0883587 -3.51065e-20)
(-1.11016 -0.0878329 0)
(-1.06094 -0.0871482 4.6886e-20)
(-1.01176 -0.0863126 5.1164e-20)
(-0.962703 -0.0853329 0)
(-0.91385 -0.0842172 0)
(-0.865266 -0.0829717 -6.82282e-20)
(-0.817014 -0.0816056 -1.46582e-21)
(-0.769153 -0.0801323 -1.44101e-21)
(-0.721746 -0.0785713 0)
(-0.674846 -0.0769418 -1.81038e-19)
(-0.6285 -0.0752614 0)
(-0.582742 -0.0735406 0)
(-0.537598 -0.071792 0)
(-0.493085 -0.0700268 1.10976e-19)
(-0.449212 -0.0682607 0)
(-0.40598 -0.0665049 -2.37905e-19)
(-0.363377 -0.0647739 -1.2444e-19)
(-0.321386 -0.0630783 0)
(-0.279977 -0.0614357 -1.32695e-19)
(-0.239111 -0.0598569 0)
(-0.198738 -0.0583571 0)
(-0.158798 -0.0569466 -4.30109e-19)
(-0.119216 -0.0556463 2.93148e-19)
(-0.0799115 -0.054466 0)
(-0.0407834 -0.053422 3.06104e-19)
(-0.00171599 -0.0525256 -1.56652e-19)
(0.0373821 -0.0517886 0)
(0.0766376 -0.0512161 0)
(0.116247 -0.0508309 0)
(0.156409 -0.0506367 -4.85707e-19)
(0.197339 -0.0506559 0)
(0.239274 -0.0509164 -1.63318e-19)
(0.282456 -0.0514197 0)
(0.327182 -0.0521413 0)
(0.373796 -0.0531269 0)
(0.422597 -0.0544608 0)
(0.473755 -0.0561967 0)
(0.527416 -0.0583285 0)
(0.58375 -0.0607963 -3.31129e-19)
(0.642898 -0.0634963 0)
(0.704943 -0.0663088 -1.67196e-19)
(0.76985 -0.0690813 5.03457e-19)
(0.837449 -0.0715924 0)
(0.907259 -0.0734588 0)
(0.978884 -0.0739493 -3.43842e-19)
(1.04975 -0.0718324 -3.49727e-19)
(1.12366 -0.0636671 3.55434e-19)
(1.18195 -0.0408005 3.67578e-19)
(-0.00857134 -0.0268444 -2.85036e-18)
(-0.0193154 0.00476024 -1.12386e-18)
(-0.0320415 0.0312123 -4.05899e-19)
(-0.046747 0.0536524 -1.45694e-19)
(-0.0623437 0.0731119 0)
(-0.0785208 0.0899715 2.11141e-19)
(-0.0954355 0.104406 -9.64919e-20)
(-0.113287 0.11659 0)
(-0.132215 0.126773 -8.53273e-20)
(-0.152295 0.135266 0)
(-0.173548 0.142405 1.56063e-19)
(-0.19596 0.148513 0)
(-0.219492 0.153872 7.24822e-20)
(-0.244098 0.158715 1.40262e-19)
(-0.26973 0.163226 -1.36027e-19)
(-0.296343 0.167549 0)
(-0.323893 0.17179 -1.28805e-19)
(-0.352333 0.176024 0)
(-0.381607 0.180299 0)
(-0.411645 0.184626 -1.2066e-19)
(-0.442353 0.188975 0)
(-0.473607 0.193257 2.10153e-23)
(-0.505257 0.197313 0)
(-0.537147 0.200943 0)
(-0.569157 0.203937 -8.35371e-23)
(-0.601241 0.206135 -1.07248e-19)
(-0.633401 0.207592 -1.04316e-19)
(-0.66557 0.208642 -1.01598e-19)
(-0.697499 0.209519 0)
(-0.728963 0.210218 -1.92621e-19)
(-0.759867 0.210603 0)
(-0.790262 0.210398 -9.19898e-20)
(-0.820378 0.209442 0)
(-0.850402 0.207907 0)
(-0.880312 0.206035 8.58463e-20)
(-0.910127 0.203723 0)
(-0.940002 0.20117 -8.18875e-20)
(-0.969916 0.198718 -4.26891e-23)
(-0.9997 0.196416 1.56906e-19)
(-1.0293 0.194125 -1.53658e-19)
(-1.05875 0.191838 0)
(-1.08809 0.189563 0)
(-1.11732 0.187304 -7.24051e-20)
(-1.14645 0.185059 0)
(-1.1755 0.182824 -6.99191e-20)
(-1.20445 0.180594 6.87066e-20)
(-1.23331 0.178367 6.75418e-20)
(-1.26207 0.176136 0)
(-1.29074 0.173899 -6.53415e-20)
(-1.3193 0.171648 -6.42999e-20)
(-1.34776 0.169379 1.26436e-19)
(-1.37609 0.167085 -6.23201e-20)
(-1.40428 0.16476 -6.13769e-20)