/*--------------------------------*- C++ -*----------------------------------*\
  =========                 |
  \\      /  F ield         | OpenFOAM: The Open Source CFD Toolbox
   \\    /   O peration     | Website:  https://openfoam.org
    \\  /    A nd           | Version:  7
     \\/     M anipulation  |
\*---------------------------------------------------------------------------*/
FoamFile
{
    version     2.0;
    format      ascii;
    class       volScalarField;
    location    "288";
    object      epsilon;
}
// * * * * * * * * * * * * * * * * * * * * * * * * * * * * * * * * * * * * * //

dimensions      [0 2 -3 0 0 0 0];

internalField   nonuniform List<scalar> 
12225
(
285.525
270.7
257.923
243.802
232.472
223.072
216.825
212.693
212.741
213.941
217.256
220.839
228.179
232.54
241.62
245.736
257.325
263.786
52.4932
91.8812
106.974
114.746
124.841
136.779
152.682
169.898
191.083
210.922
235.172
255.459
280.955
299.265
324.579
339.093
364.311
373.081
20.5286
34.8726
44.6748
50.4697
55.3937
59.6082
64.66
69.6444
76.3074
83.1837
91.416
99.3128
108.137
116.913
125.483
135.202
142.463
153.542
16.0023
19.4865
24.081
27.5642
30.4954
32.8702
35.1531
37.2943
39.4992
41.9177
44.3313
47.1989
49.6727
53.0291
55.3974
59.2102
61.3983
65.5924
15.0385
15.7125
17.3988
19.0788
20.6387
22.0263
23.2452
24.4313
25.4428
26.5943
27.5217
28.7563
29.6293
30.9811
31.8078
33.2556
34.0663
35.6279
14.7897
14.8257
15.2495
15.8677
16.5674
17.2871
17.9234
18.5841
19.1187
19.7336
20.1926
20.798
21.2073
21.8205
22.1958
22.8213
23.1743
23.8507
14.7657
14.6146
14.6409
14.7258
14.935
15.22
15.4915
15.8088
16.0708
16.3824
16.6178
16.9197
17.1303
17.4261
17.6147
17.9103
18.0792
18.4028
14.7687
14.5866
14.466
14.3801
14.3677
14.3896
14.4394
14.5334
14.6184
14.7365
14.8307
14.9562
15.0475
15.1757
15.2605
15.3909
15.4688
15.618
14.768
14.591
14.4349
14.2963
14.185
14.1044
14.0399
14.0066
13.9814
13.9785
13.9808
13.9916
14.004
14.0294
14.0469
14.079
14.1027
14.1449
14.7665
14.594
14.432
14.282
14.143
14.0219
13.9115
13.8194
13.737
13.6698
13.6102
13.5633
13.5181
13.4871
13.4516
13.4341
13.402
13.4005
14.7659
14.5945
14.4322
14.2803
14.1362
14.0032
13.8782
13.7644
13.6582
13.5629
13.4736
13.3952
13.3198
13.2561
13.1916
13.1408
13.0838
13.0451
14.7657
14.5943
14.4321
14.2798
14.1353
13.9999
13.8715
13.7518
13.6385
13.5337
13.4341
13.343
13.2557
13.1771
13.1003
13.0328
12.9647
12.9074
14.7657
14.5941
14.432
14.2794
14.1349
13.9989
13.8699
13.7485
13.6332
13.525
13.422
13.3257
13.2338
13.1484
13.0663
12.9906
12.9172
12.8502
14.7657
14.5939
14.4318
14.279
14.1346
13.9983
13.8692
13.7472
13.6315
13.5223
13.4184
13.3204
13.227
13.139
13.055
12.9759
12.9002
12.8291
14.7657
14.5938
14.4317
14.2787
14.1342
13.9977
13.8686
13.7464
13.6307
13.5211
13.4171
13.3185
13.2249
13.136
13.0516
12.9714
12.8951
12.8227
14.7657
14.5937
14.4315
14.2785
14.1339
13.9973
13.8681
13.7458
13.63
13.5202
13.4161
13.3174
13.2236
13.1346
13.05
12.9696
12.8931
12.8204
14.7657
14.5937
14.4315
14.2783
14.1337
13.997
13.8677
13.7453
13.6294
13.5195
13.4154
13.3165
13.2227
13.1336
13.0489
12.9684
12.8918
12.819
14.7657
14.5937
14.4314
14.2782
14.1335
13.9968
13.8674
13.7449
13.629
13.5191
13.4148
13.3159
13.222
13.1328
13.0481
12.9675
12.8908
12.8179
14.7657
14.5937
14.4314
14.2782
14.1335
13.9967
13.8673
13.7448
13.6288
13.5189
13.4146
13.3156
13.2217
13.1325
13.0477
12.967
12.8903
12.8174
14.7657
14.5937
14.4314
14.2782
14.1336
13.9968
13.8674
13.745
13.629
13.519
13.4148
13.3158
13.2219
13.1327
13.0479
12.9673
12.8906
12.8177
14.7657
14.5937
14.4315
14.2784
14.1337
13.997
13.8677
13.7453
13.6294
13.5195
13.4154
13.3166
13.2229
13.1338
13.0493
12.9689
12.8926
12.8199
14.7657
14.5937
14.4316
14.2785
14.1341
13.9974
13.8685
13.7464
13.6312
13.522
13.419
13.3213
13.2293
13.1418
13.0594
12.981
12.9073
12.8368
14.7659
14.5937
14.4318
14.2788
14.1353
14.0002
13.8742
13.756
13.6463
13.5435
13.4485
13.3591
13.277
13.1992
13.1282
13.0601
12.9988
12.9386
14.7661
14.5928
14.4329
14.2844
14.1515
14.0321
13.9289
13.8375
13.7593
13.6893
13.6306
13.5769
13.5327
13.4905
13.4574
13.423
13.3989
13.3693
14.7641
14.5936
14.461
14.3603
14.3029
14.2767
14.2796
14.294
14.3202
14.3529
14.3959
14.4346
14.4825
14.5217
14.572
14.609
14.6617
14.694
14.757
14.6921
14.758
14.9172
15.1828
15.4611
15.7475
16.0121
16.2724
16.5039
16.7362
16.9387
17.1508
17.3311
17.5311
17.6938
17.8891
18.0362
14.9575
15.4344
16.5693
17.6884
18.7053
19.5678
20.3373
20.997
21.6196
22.1663
22.7191
23.2111
23.7403
24.2048
24.7333
25.1833
25.7257
26.1668
16.2579
20.9389
25.015
27.7588
29.7845
31.3587
32.7769
34.0587
35.3597
36.6169
37.9762
39.2982
40.7628
42.1472
43.7196
45.1758
46.8862
48.3612
29.9428
47.2251
54.8706
58.6738
61.6143
64.4328
67.5805
70.9805
74.74
78.7168
82.9887
87.3487
91.9104
96.4565
101.107
105.631
110.184
114.586
165.79
160.073
154.899
149.564
144.479
139.678
135.613
132.11
129.27
126.974
125.32
124.045
123.34
122.83
122.826
122.983
123.271
123.828
0.156285
0.200556
0.375588
0.530281
0.678274
0.845147
1.03887
1.26969
1.54308
1.85756
2.20674
2.58208
2.97516
3.37848
3.78579
4.19182
4.59221
4.98341
5.36253
5.72766
6.07744
6.41177
6.73047
7.03441
7.32291
7.59479
7.84606
8.07811
8.28255
8.42952
8.50082
8.46342
8.28119
7.85417
8.13267
8.36979
8.80433
9.34609
43.8467
41.7245
40.5039
9.2643
42.6011
45.5802
48.7076
52.2815
55.8084
59.6351
63.5553
67.6864
71.9665
76.4336
81.0709
85.8926
90.8955
96.0867
101.467
107.04
112.808
118.775
124.941
131.311
137.882
144.66
151.641
158.829
166.221
173.819
181.618
189.619
197.818
206.213
214.798
223.573
232.528
241.661
250.962
260.429
270.049
279.819
289.726
299.763
309.916
320.179
330.534
340.975
351.482
362.045
372.644
383.266
393.889
404.49
415.044
425.527
435.913
446.177
456.309
466.329
476.32
486.125
495.81
505.331
514.688
523.858
532.828
541.584
550.108
558.387
566.406
574.152
581.609
588.766
595.608
602.126
608.304
614.136
619.607
624.71
629.437
633.78
637.731
641.283
644.427
647.161
649.478
651.38
652.858
653.904
654.58
654.883
654.684
654.024
652.914
651.49
649.726
647.486
644.881
641.889
638.527
634.806
630.735
626.327
621.597
616.549
611.198
605.557
599.639
593.459
587.03
580.368
573.487
566.402
559.13
551.684
544.08
536.335
528.465
520.485
512.414
504.273
496.095
487.945
480.245
475.363
472.163
469.077
465.967
462.818
459.636
456.426
453.194
449.937
446.653
443.323
439.914
436.345
432.458
427.806
421.503
396.42
0.805183
0.502216
0.509017
0.575262
0.677514
0.810437
0.976009
1.17638
1.41168
1.67951
1.97547
2.29442
2.63126
2.98155
3.3415
3.70816
4.07928
4.45344
4.83
5.20931
5.59259
5.98181
6.3797
6.78888
7.21212
7.65048
8.10465
8.59909
9.1523
9.77998
10.5313
11.5021
12.8526
13.5551
14.4962
16.6508
17.773
20.0341
22.4417
22.8347
23.2093
23.2403
27.8224
29.0056
30.7479
32.4932
34.2878
36.1555
38.0789
40.0726
42.1311
44.26
46.4583
48.7287
51.0715
53.4881
55.9792
58.5456
61.1878
63.9064
66.7017
69.5739
72.523
75.5489
78.6513
81.8299
85.0838
88.4124
91.8145
95.2893
98.835
102.45
106.133
109.882
113.694
117.567
121.498
125.485
129.524
133.612
137.745
141.92
146.132
150.378
154.651
158.947
163.261
167.586
171.917
176.247
180.568
184.872
189.152
193.403
197.619
201.801
205.961
210.125
214.353
218.509
222.618
226.665
230.648
234.56
238.395
242.146
245.809
249.377
252.844
256.205
259.455
262.588
265.6
268.484
271.237
273.855
276.332
278.665
280.851
282.886
284.767
286.49
288.052
289.452
290.688
291.758
292.662
293.398
293.974
294.381
294.601
294.643
294.516
294.245
293.823
293.222
292.465
291.55
290.48
289.258
287.889
286.377
284.725
282.937
281.018
278.971
276.804
274.519
272.123
269.621
267.019
264.322
261.536
258.666
255.72
252.703
249.62
246.48
243.288
240.054
236.79
233.523
230.37
227.753
225.511
223.341
221.177
219.007
216.831
214.652
212.472
210.294
208.121
205.954
203.793
201.64
199.481
197.374
195.28
191.808
1.72604
0.894633
0.807328
0.84154
0.927504
1.05273
1.21459
1.41221
1.64391
1.90661
2.19611
2.50796
2.83801
3.18285
3.53988
3.90731
4.28416
4.67023
5.0662
5.47371
5.89542
6.33497
6.79704
7.28701
7.81136
8.37735
8.99451
9.65567
10.3631
11.1274
11.9549
12.8473
13.7349
14.6207
15.6464
16.8005
17.8957
19.1286
20.3115
21.2958
22.405
23.7058
25.3759
26.6923
28.1109
29.5747
31.0899
32.6586
34.28
35.9557
37.6858
39.4714
41.3128
43.2109
45.1662
47.1792
49.2503
51.3801
53.5688
55.8167
58.1241
60.4908
62.9168
65.402
67.9462
70.5489
73.2098
75.9282
78.7033
81.5344
84.4203
87.3599
90.3519
93.3947
96.4868
99.6263
102.811
106.039
109.309
112.616
115.959
119.335
122.741
126.172
129.627
133.101
136.59
140.089
143.596
147.106
150.614
154.116
157.609
161.091
164.56
168.018
171.467
174.914
178.347
181.74
185.091
188.395
191.647
194.842
197.974
201.04
204.033
206.95
209.785
212.535
215.194
217.758
220.222
222.584
224.839
226.983
229.013
230.926
232.719
234.388
235.932
237.347
238.631
239.783
240.801
241.684
242.432
243.043
243.518
243.854
244.037
244.083
243.998
243.784
243.44
242.958
242.346
241.605
240.737
239.746
238.634
237.404
236.059
234.604
233.041
231.374
229.608
227.747
225.795
223.756
221.634
219.436
217.164
214.824
212.422
209.961
207.447
204.885
202.281
199.641
196.976
194.305
191.684
189.249
186.969
184.742
182.531
180.325
178.123
175.926
173.739
171.563
169.404
167.266
165.157
163.093
161.089
159.237
157.577
155.95
2.78935
1.33745
1.14614
1.14846
1.22658
1.35256
1.51816
1.71994
1.95515
2.22062
2.51263
2.82742
3.1616
3.51245
3.87807
4.25734
4.64991
5.05616
5.47721
5.91498
6.37219
6.85228
7.35936
7.89773
8.47167
9.08432
9.73743
10.4291
11.1578
11.921
12.715
13.5361
14.383
15.2514
16.1748
17.148
18.1712
19.2621
20.3692
21.4926
22.6886
23.9684
25.2993
26.6194
27.9845
29.395
30.8532
32.3606
33.918
35.5263
37.1861
38.8983
40.6636
42.4825
44.3556
46.2836
48.2668
50.3058
52.4009
54.5526
56.7611
59.0267
61.3495
63.7296
66.1668
68.6611
71.2123
73.8198
76.4833
79.202
81.9752
84.8019
87.6812
90.6116
93.5918
96.6203
99.6951
102.814
105.976
109.178
112.417
115.691
118.997
122.332
125.693
129.076
132.477
135.894
139.321
142.757
146.196
149.636
153.073
156.505
159.929
163.344
166.749
170.138
173.502
176.828
180.114
183.353
186.541
189.672
192.741
195.744
198.674
201.528
204.3
206.987
209.582
212.083
214.484
216.782
218.972
221.052
223.018
224.866
226.593
228.197
229.675
231.025
232.245
233.332
234.286
235.105
235.789
236.338
236.75
237.019
237.135
237.134
236.995
236.724
236.323
235.789
235.125
234.335
233.42
232.384
231.229
229.959
228.577
227.087
225.493
223.798
222.007
220.124
218.153
216.099
213.967
211.76
209.485
207.145
204.746
202.292
199.789
197.241
194.654
192.036
189.394
186.743
184.118
181.577
179.116
176.695
174.293
171.902
169.522
167.154
164.802
162.471
160.164
157.89
155.657
153.485
151.404
149.5
147.82
146.354
3.86245
1.79254
1.4924
1.46238
1.52935
1.65311
1.81991
2.02384
2.26115
2.52853
2.82261
3.14016
3.47829
3.83473
4.20792
4.59698
5.00173
5.42256
5.86045
6.31691
6.794
7.29422
7.82044
8.37557
8.96237
9.58273
10.2376
10.9261
11.6463
12.3947
13.1668
13.9577
14.7877
15.6569
16.5767
17.5523
18.587
19.6577
20.7615
21.9016
23.0897
24.3251
25.6115
26.934
28.3004
29.7131
31.1737
32.6837
34.2442
35.8561
37.5206
39.2384
41.0106
42.8382
44.7221
46.6629
48.661
50.7173
52.8324
55.007
57.2415
59.5366
61.8925
64.3098
66.7885
69.3288
71.9307
74.5941
77.3187
80.1041
82.9498
85.855
88.8189
91.8402
94.9177
98.05
101.235
104.472
107.757
111.089
114.466
117.884
121.34
124.832
128.355
131.907
135.484
139.081
142.696
146.324
149.96
153.602
157.245
160.885
164.517
168.138
171.741
175.32
178.869
182.38
185.847
189.264
192.627
195.928
199.163
202.326
205.411
208.413
211.327
214.147
216.869
219.488
221.999
224.397
226.68
228.842
230.879
232.79
234.57
236.216
237.726
239.097
240.328
241.416
242.36
243.159
243.813
244.321
244.681
244.881
244.937
244.858
244.632
244.265
243.758
243.111
242.327
241.409
240.36
239.183
237.882
236.46
234.921
233.269
231.51
229.646
227.683
225.625
223.478
221.246
218.934
216.548
214.093
211.573
208.994
206.361
203.68
200.957
198.196
195.406
192.593
189.771
186.96
184.192
181.47
178.78
176.109
173.455
170.818
168.2
165.605
163.039
160.507
158.02
155.588
153.238
150.999
148.949
147.123
145.483
4.88815
2.23486
1.82696
1.76414
1.81784
1.93679
2.10204
2.30536
2.54205
2.80855
3.10171
3.41866
3.7569
4.11445
4.48995
4.88261
5.29226
5.71915
6.16405
6.62804
7.11263
7.61957
8.15091
8.70874
9.29516
9.91189
10.5603
11.2409
11.9536
12.6979
13.4731
14.2795
15.1222
16.0052
16.9334
17.9096
18.9336
20.0008
21.109
22.2591
23.4549
24.6978
25.9882
27.3247
28.7091
30.1428
31.6271
33.1636
34.7533
36.3978
38.098
39.8553
41.6709
43.5456
45.4805
47.477
49.5364
51.6596
53.8479
56.102
58.4231
60.8118
63.2691
65.7955
68.3915
71.0578
73.7944
76.6015
79.4792
82.4272
85.4451
88.5323
91.688
94.9111
98.2005
101.554
104.971
108.449
111.986
115.578
119.224
122.921
126.664
130.45
134.277
138.139
142.033
145.953
149.896
153.858
157.832
161.814
165.8
169.783
173.758
177.718
181.658
185.57
189.447
193.282
197.069
200.8
204.471
208.073
211.6
215.047
218.407
221.673
224.84
227.902
230.853
233.688
236.402
238.989
241.446
243.767
245.95
247.989
249.881
251.624
253.215
254.65
255.929
257.048
258.008
258.806
259.442
259.917
260.223
260.354
260.339
260.164
259.83
259.34
258.695
257.898
256.952
255.859
254.624
253.25
251.742
250.104
248.339
246.455
244.454
242.343
240.126
237.809
235.399
232.899
230.317
227.657
224.926
222.129
219.272
216.362
213.403
210.403
207.367
204.302
201.216
198.12
195.029
191.962
188.925
185.914
182.925
179.957
177.011
174.092
171.204
168.352
165.546
162.794
160.113
157.525
155.066
152.799
150.742
148.805
5.82872
2.64728
2.13638
2.04059
2.07937
2.19121
2.3523
2.55225
2.78539
3.04788
3.33666
3.6491
3.983
4.33662
4.70877
5.09874
5.50636
5.93185
6.37585
6.83927
7.32336
7.82954
8.35949
8.91494
9.49775
10.1097
10.7523
11.4271
12.1351
12.8771
13.6541
14.467
15.3182
16.2101
17.1452
18.1251
19.1506
20.2211
21.3367
22.498
23.7068
24.9646
26.2724
27.631
29.0416
30.5055
32.0244
33.5996
35.2328
36.9256
38.6794
40.4958
42.3764
44.3227
46.3363
48.4187
50.5716
52.7964
55.0946
57.4676
59.9168
62.4433
65.0485
67.7332
70.4984
73.3449
76.2732
79.2837
82.3767
85.5522
88.8099
92.1493
95.5697
99.07
102.649
106.305
110.036
113.841
117.715
121.657
125.664
129.732
133.856
138.034
142.261
146.531
150.841
155.185
159.557
163.952
168.364
172.787
177.214
181.64
186.056
190.455
194.83
199.173
203.477
207.732
211.933
216.071
220.139
224.129
228.033
231.846
235.558
239.164
242.657
246.029
249.274
252.387
255.361
258.191
260.872
263.399
265.767
267.972
270.01
271.879
273.574
275.094
276.436
277.599
278.581
279.382
280
280.436
280.676
280.738
280.626
280.336
279.87
279.229
278.416
277.435
276.289
274.982
273.518
271.902
270.139
268.233
266.191
264.018
261.72
259.303
256.773
254.136
251.399
248.568
245.649
242.65
239.577
236.436
233.234
229.977
226.673
223.327
219.947
216.54
213.113
209.677
206.242
202.823
199.427
196.055
192.708
189.386
186.093
182.833
179.612
176.438
173.318
170.264
167.293
164.428
161.702
159.169
156.829
154.548
6.65781
3.01696
2.41081
2.28255
2.30516
2.40788
2.56245
2.75648
2.98339
3.23901
3.52029
3.82479
4.15054
4.49603
4.86024
5.24257
5.6429
6.06148
6.49898
6.95631
7.43466
7.93536
8.45997
9.01006
9.58712
10.1931
10.8298
11.499
12.2022
12.9408
13.7162
14.53
15.3836
16.2788
17.2174
18.2008
19.2303
20.3068
21.4312
22.6047
23.8289
25.105
26.4348
27.8197
29.2611
30.7608
32.3206
33.9425
35.6284
37.3801
39.1997
41.0892
43.0506
45.0859
47.1971
49.3863
51.6556
54.0069
56.4423
58.9635
61.5724
64.2707
67.0601
69.9419
72.9174
75.9878
79.154
82.4167
85.7763
89.233
92.7868
96.437
100.183
104.024
107.958
111.984
116.1
120.302
124.588
128.955
133.399
137.916
142.502
147.151
151.859
156.62
161.428
166.276
171.16
176.07
181.002
185.946
190.896
195.843
200.779
205.695
210.582
215.432
220.236
224.985
229.67
234.282
238.813
243.254
247.596
251.832
255.952
259.95
263.816
267.544
271.126
274.556
277.826
280.931
283.865
286.622
289.197
291.587
293.786
295.792
297.6
299.209
300.617
301.821
302.82
303.614
304.203
304.582
304.745
304.715
304.484
304.053
303.425
302.603
301.589
300.389
299.006
297.446
295.712
293.811
291.749
289.532
287.165
284.656
282.012
279.239
276.344
273.336
270.22
267.005
263.699
260.308
256.839
253.301
249.701
246.046
242.344
238.601
234.825
231.024
227.205
223.378
219.553
215.74
211.949
208.182
204.442
200.734
197.061
193.429
189.845
186.316
182.852
179.465
176.172
172.997
169.97
167.133
164.472
161.827
7.35957
3.33566
2.64409
2.4845
2.49015
2.58207
2.72807
2.91398
3.13237
3.37876
3.65007
3.94398
4.25874
4.59304
4.94605
5.31734
5.70683
6.11455
6.54153
6.98884
7.45771
7.94956
8.46603
9.00903
9.57984
10.1799
10.8108
11.4744
12.1724
12.9064
13.6782
14.4893
15.3413
16.2359
17.1748
18.1596
19.1918
20.2731
21.405
22.5894
23.8282
25.1248
26.4798
27.8948
29.371
30.9111
32.5177
34.1932
35.94
37.7606
39.6574
41.633
43.6898
45.8305
48.0576
50.3738
52.7817
55.2837
57.8825
60.5804
63.3798
66.283
69.2919
72.4085
75.6344
78.9713
82.4203
85.9823
89.6581
93.4479
97.3517
101.369
105.499
109.741
114.093
118.553
123.118
127.785
132.551
137.413
142.365
147.402
152.52
157.713
162.975
168.298
173.676
179.101
184.567
190.063
195.583
201.117
206.656
212.19
217.71
223.206
228.667
234.083
239.444
244.741
249.962
255.098
260.139
265.076
269.897
274.595
279.158
283.58
287.85
291.96
295.902
299.668
303.252
306.645
309.843
312.838
315.626
318.202
320.561
322.699
324.614
326.303
327.762
328.992
329.991
330.759
331.297
331.594
331.661
331.505
331.123
330.519
329.696
328.657
327.406
325.949
324.29
322.435
320.391
318.163
315.759
313.186
310.451
307.561
304.526
301.352
298.048
294.622
291.083
287.439
283.699
279.871
275.964
271.985
267.944
263.847
259.704
255.522
251.309
247.073
242.822
238.566
234.313
230.074
225.856
221.665
217.507
213.386
209.308
205.278
201.305
197.397
193.563
189.818
186.179
182.666
179.308
176.14
173.133
170.112
7.92578
3.59915
2.83369
2.64362
2.63276
2.71247
2.84818
3.02414
3.23218
3.4675
3.72699
4.00844
4.31024
4.63107
4.97061
5.3289
5.70648
6.10424
6.52194
6.96028
7.42038
7.90355
8.41122
8.94473
9.50571
10.0958
10.7171
11.3715
12.0608
12.787
13.5518
14.357
15.2046
16.0964
17.0344
18.0205
19.0567
20.145
21.2875
22.4862
23.7434
25.0606
26.4408
27.8867
29.402
30.9885
32.6493
34.3875
36.206
38.1077
40.0958
42.1733
44.3434
46.6092
48.974
51.441
54.0135
56.6945
59.4873
62.3949
65.4201
68.5657
71.8343
75.2282
78.7495
82.4001
86.1814
90.0946
94.1405
98.3195
102.631
107.076
111.652
116.357
121.191
126.15
131.232
136.432
141.746
147.17
152.699
158.326
164.045
169.85
175.732
181.684
187.697
193.763
199.873
206.016
212.183
218.364
224.547
230.721
236.875
242.999
249.079
255.104
261.063
266.944
272.736
278.427
284.007
289.463
294.786
299.964
304.986
309.844
314.527
319.025
323.331
327.434
331.328
335.005
338.458
341.681
344.668
347.414
349.915
352.165
354.164
355.907
357.392
358.62
359.588
360.298
360.747
360.934
360.866
360.545
359.974
359.158
358.099
356.803
355.273
353.517
351.539
349.348
346.949
344.352
341.563
338.591
335.444
332.132
328.662
325.046
321.291
317.408
313.405
309.293
305.081
300.778
296.394
291.938
287.418
282.845
278.226
273.571
268.888
264.186
259.472
254.756
250.047
245.355
240.687
236.051
231.453
226.899
222.395
217.948
213.567
209.26
205.039
200.916
196.909
193.039
189.328
185.807
182.437
179.037
8.35569
3.8061
2.97919
2.76069
2.73375
2.8004
2.92452
3.0891
3.28539
3.50831
3.75451
4.02241
4.31112
4.62065
4.94932
5.2966
5.66239
6.04652
6.44998
6.8741
7.32018
7.78954
8.2836
8.80391
9.35233
9.93092
10.5414
11.1856
11.8655
12.5831
13.3405
14.1398
14.9831
15.8726
16.8106
17.7994
18.8415
19.9394
21.0956
22.3128
23.5937
24.9412
26.3585
27.8488
29.4136
31.0566
32.7833
34.5981
36.5046
38.506
40.6061
42.8084
45.1169
47.5355
50.0681
52.7185
55.4907
58.3886
61.4158
64.5759
67.8726
71.3089
74.888
78.6125
82.4848
86.5071
90.681
95.0076
99.4878
104.122
108.909
113.849
118.94
124.181
129.568
135.098
140.767
146.571
152.505
158.562
164.736
171.021
177.407
183.888
190.453
197.095
203.802
210.564
217.371
224.21
231.071
237.942
244.809
251.661
258.483
265.264
271.99
278.647
285.224
291.706
298.081
304.337
310.46
316.438
322.26
327.913
333.387
338.67
343.751
348.62
353.269
357.687
361.866
365.799
369.478
372.896
376.048
378.928
381.532
383.856
385.897
387.652
389.121
390.301
391.194
391.798
392.116
392.147
391.896
391.362
390.554
389.477
388.136
386.534
384.679
382.576
380.234
377.661
374.864
371.852
368.635
365.222
361.622
357.847
353.905
349.807
345.564
341.186
336.685
332.07
327.353
322.543
317.651
312.688
307.662
302.584
297.463
292.31
287.132
281.938
276.739
271.542
266.357
261.193
256.059
250.962
245.909
240.908
235.965
231.088
226.286
221.568
216.945
212.432
208.043
203.8
199.721
195.833
192.09
188.31
8.65495
3.95812
3.08243
2.83864
2.79604
2.84916
2.96077
3.11282
3.29657
3.50743
3.74287
3.99989
4.27669
4.57156
4.88442
5.21553
5.56519
5.93405
6.3233
6.73372
7.16645
7.6228
8.10427
8.61251
9.14934
9.7167
10.3166
10.951
11.6222
12.3324
13.0841
13.8795
14.7213
15.6121
16.5546
17.5516
18.6062
19.7214
20.9002
22.146
23.4623
24.8532
26.321
27.8681
29.4977
31.2182
33.0337
34.9491
36.9706
39.1016
41.3465
43.7095
46.1953
48.8085
51.5537
54.4357
57.459
60.6279
63.947
67.4203
71.0518
74.8451
78.8035
82.9301
87.2272
91.697
96.341
101.16
106.155
111.326
116.67
122.189
127.877
133.734
139.755
145.936
152.272
158.757
165.384
172.146
179.036
186.043
193.16
200.376
207.68
215.062
222.51
230.011
237.553
245.123
252.707
260.292
267.864
275.408
282.909
290.354
297.727
305.014
312.201
319.272
326.215
333.014
339.657
346.13
352.42
358.515
364.401
370.069
375.505
380.7
385.643
390.325
394.737
398.87
402.719
406.275
409.534
412.489
415.136
417.472
419.495
421.201
422.59
423.662
424.418
424.857
424.982
424.799
424.302
423.497
422.396
421.003
419.323
417.363
415.129
412.63
409.874
406.87
403.628
400.158
396.47
392.574
388.482
384.205
379.754
375.141
370.377
365.474
360.444
355.299
350.05
344.708
339.285
333.791
328.238
322.636
316.995
311.325
305.636
299.937
294.237
288.546
282.874
277.228
271.618
266.052
260.537
255.082
249.694
244.381
239.152
234.017
228.987
224.076
219.299
214.674
210.219
205.957
201.838
197.684
8.8361
4.05984
3.14717
2.88147
2.82389
2.86333
2.96271
3.10441
3.27796
3.47736
3.69849
3.93994
4.2007
4.48026
4.77861
5.09562
5.43158
5.78709
6.16306
6.5605
6.98066
7.42492
7.8949
8.39236
8.91923
9.47761
10.0697
10.6977
11.3643
12.0721
12.8238
13.6224
14.4709
15.3724
16.33
17.3475
18.4286
19.5775
20.7972
22.0911
23.4624
24.9119
26.4478
28.0773
29.8069
31.6416
33.5866
35.6476
37.8308
40.1415
42.585
45.1664
47.8913
50.7651
53.7931
56.9807
60.3329
63.8548
67.551
71.4261
75.4843
79.7292
84.1641
88.792
93.6149
98.6345
103.852
109.267
114.88
120.69
126.694
132.89
139.275
145.843
152.591
159.511
166.598
173.844
181.24
188.777
196.446
204.236
212.137
220.135
228.219
236.375
244.591
252.852
261.144
269.453
277.762
286.057
294.322
302.541
310.699
318.779
326.766
334.643
342.395
350.006
357.463
364.748
371.849
378.751
385.44
391.904
398.128
404.103
409.814
415.252
420.407
425.268
429.828
434.077
438.008
441.616
444.893
447.837
450.441
452.704
454.623
456.197
457.425
458.308
458.846
459.043
458.905
458.429
457.611
456.468
455.007
453.233
451.153
448.774
446.104
443.153
439.931
436.448
432.714
428.741
424.54
420.124
415.503
410.69
405.698
400.54
395.228
389.775
384.194
378.497
372.697
366.807
360.837
354.801
348.708
342.571
336.401
330.207
324
317.79
311.586
305.398
299.235
293.106
287.021
280.987
275.012
269.105
263.274
257.527
251.873
246.322
240.886
235.578
230.412
225.405
220.573
215.936
211.443
206.926
8.893
4.11078
3.17574
2.89285
2.82293
2.85241
2.9415
3.07028
3.2295
3.41416
3.62148
3.84958
4.09724
4.36389
4.64938
4.95381
5.27763
5.6215
5.98636
6.37337
6.78386
7.21943
7.68187
8.17317
8.69557
9.25146
9.8433
10.4738
11.1459
11.8627
12.6278
13.4453
14.3184
15.2505
16.2454
17.3068
18.4376
19.6397
20.9209
22.2872
23.7448
25.3013
26.9618
28.7329
30.6216
32.634
34.7769
37.0573
39.4818
42.0566
44.7881
47.6832
50.7481
53.989
57.4116
61.0217
64.8244
68.8249
73.0278
77.4376
82.0578
86.8918
91.9422
97.2109
102.699
108.407
114.335
120.482
126.845
133.422
140.209
147.201
154.394
161.78
169.353
177.105
185.026
193.108
201.34
209.71
218.207
226.819
235.532
244.332
253.206
262.139
271.116
280.12
289.137
298.149
307.141
316.096
324.996
333.826
342.567
351.204
359.719
368.096
376.318
384.369
392.234
399.897
407.344
414.56
421.53
428.243
434.684
440.842
446.705
452.262
457.503
462.419
467.001
471.242
475.134
478.672
481.85
484.664
487.11
489.187
490.893
492.227
493.188
493.781
494.005
493.87
493.376
492.51
491.293
489.732
487.834
485.608
483.058
480.195
477.029
473.57
469.828
465.816
461.544
457.027
452.275
447.301
442.12
436.744
431.186
425.461
419.581
413.562
407.416
401.156
394.797
388.351
381.83
375.248
368.615
361.944
355.246
348.532
341.812
335.097
328.396
321.718
315.074
308.472
301.92
295.429
289.005
282.658
276.395
270.225
264.157
258.201
252.368
246.671
241.125
235.743
230.541
225.536
220.679
215.817
8.87424
4.12046
3.17516
2.88286
2.80324
2.81979
2.89534
3.01144
3.15865
3.3316
3.52727
3.7439
3.98047
4.23649
4.51194
4.8071
5.12257
5.45924
5.81823
6.20085
6.6087
7.04363
7.50778
8.00364
8.53421
9.10266
9.7115
10.3639
11.0634
11.8133
12.617
13.476
14.3958
15.3827
16.4425
17.5808
18.804
20.1192
21.5318
23.0488
24.6777
26.4266
28.3027
30.3138
32.4674
34.7713
37.2333
39.8613
42.6629
45.6456
48.8174
52.1862
55.7595
59.5432
63.5426
67.7626
72.2079
76.8825
81.79
86.9335
92.3151
97.9365
103.798
109.901
116.242
122.821
129.635
136.68
143.952
151.445
159.153
167.069
175.184
183.49
191.977
200.636
209.453
218.419
227.52
236.743
246.074
255.499
265.004
274.574
284.191
293.841
303.508
313.173
322.821
332.435
341.997
351.49
360.897
370.2
379.381
388.424
397.312
406.028
414.555
422.877
430.979
438.845
446.461
453.812
460.885
467.667
474.146
480.31
486.147
491.647
496.801
501.6
506.037
510.103
513.794
517.103
520.027
522.561
524.704
526.453
527.809
528.772
529.339
529.522
529.325
528.744
527.771
526.426
524.715
522.647
520.231
517.473
514.381
510.968
507.243
503.219
498.906
494.318
489.468
484.368
479.032
473.475
467.709
461.749
455.61
449.305
442.85
436.259
429.546
422.724
415.809
408.813
401.749
394.631
387.471
380.279
373.07
365.852
358.637
351.435
344.256
337.11
330.005
322.951
315.957
309.031
302.181
295.415
288.742
282.17
275.709
269.368
263.158
257.091
251.18
245.44
239.882
234.527
229.322
224.137
8.81524
4.11028
3.15858
2.85365
2.76182
2.76747
2.83261
2.93852
3.07582
3.2394
3.42642
3.63529
3.86518
4.11579
4.38731
4.68033
4.9959
5.33573
5.70122
6.09383
6.5156
6.96885
7.45611
7.9799
8.5421
9.14467
9.79357
10.4938
11.2504
12.0686
12.9541
13.9139
14.9539
16.0803
17.3006
18.6224
20.0543
21.605
23.2828
25.0967
27.0558
29.1696
31.4471
33.8976
36.5301
39.3533
42.3754
45.6035
49.0441
52.7072
56.6018
60.7375
65.1257
69.7679
74.6652
79.8194
85.2321
90.9045
96.8368
103.029
109.479
116.185
123.144
130.352
137.804
145.495
153.418
161.565
169.929
178.501
187.272
196.23
205.365
214.666
224.12
233.715
243.438
253.275
263.211
273.233
283.326
293.473
303.66
313.871
324.09
334.299
344.484
354.626
364.71
374.717
384.632
394.437
404.115
413.65
423.024
432.22
441.224
450.018
458.587
466.916
474.989
482.792
490.311
497.534
504.447
511.039
517.298
523.212
528.773
533.97
538.796
543.243
547.303
550.97
554.241
557.109
559.572
561.629
563.274
564.512
565.338
565.765
565.767
565.412
564.623
563.441
561.872
559.923
557.601
554.917
551.879
548.495
544.774
540.729
536.372
531.715
526.771
521.553
516.076
510.352
504.397
498.224
491.849
485.286
478.55
471.656
464.618
457.453
450.174
442.796
435.333
427.799
420.206
412.569
404.899
397.208
389.508
381.811
374.126
366.464
358.835
351.248
343.711
336.235
328.826
321.494
314.247
307.092
300.038
293.093
286.265
279.565
273.002
266.589
260.337
254.26
248.368
242.681
237.15
231.671
8.69477
4.07565
3.12148
2.8095
2.71111
2.71026
2.76945
2.8704
3.00401
3.16553
3.35264
3.56437
3.79987
4.05916
4.3428
4.65165
4.98662
5.348
5.73786
6.15997
6.61778
7.11495
7.65551
8.24402
8.88603
9.58776
10.3544
11.1926
12.1099
13.1142
14.2143
15.4198
16.7399
18.1845
19.7638
21.4888
23.3709
25.4215
27.652
30.0738
32.698
35.5352
38.5957
41.8893
45.4251
49.2115
53.2553
57.5624
62.1386
66.99
72.1221
77.542
83.2548
89.2528
95.5317
102.087
108.915
116.009
123.364
130.973
138.829
146.925
155.251
163.798
172.558
181.52
190.673
200.008
209.511
219.173
228.981
238.923
248.986
259.158
269.425
279.775
290.195
300.669
311.185
321.728
332.284
342.839
353.377
363.885
374.348
384.75
395.075
405.31
415.438
425.443
435.312
445.027
454.575
463.939
473.105
482.057
490.781
499.262
507.486
515.439
523.109
530.481
537.543
544.284
550.693
556.759
562.472
567.823
572.801
577.399
581.611
585.43
588.85
591.865
594.474
596.672
598.454
599.825
600.774
601.319
601.433
601.173
600.484
599.386
597.89
596
593.725
591.071
588.048
584.667
580.935
576.862
572.458
567.737
562.711
557.393
551.796
545.934
539.823
533.475
526.906
520.131
513.164
506.02
498.714
491.263
483.68
475.981
468.18
460.292
452.331
444.31
436.242
428.141
420.019
411.887
403.757
395.64
387.546
379.484
371.465
363.497
355.589
347.749
339.985
332.305
324.716
317.228
309.846
302.579
295.435
288.424
281.555
274.84
268.289
261.915
255.727
249.748
243.924
238.196
8.5744
4.02245
3.07627
2.7657
2.66773
2.66824
2.73122
2.83837
2.98072
3.15365
3.35442
3.58085
3.8344
4.11635
4.42832
4.77251
5.15175
5.57001
6.03123
6.53983
7.10137
7.72224
8.40972
9.17197
10.0181
10.9581
12.0019
13.1609
14.4477
15.8753
17.4575
19.2084
21.1425
23.2746
25.6197
28.1922
31.006
34.0743
37.4094
41.0231
44.9256
49.1247
53.6265
58.4363
63.5589
68.9963
74.7468
80.8087
87.1817
93.8634
100.849
108.15
115.724
123.561
131.652
139.983
148.543
157.318
166.297
175.466
184.813
194.327
203.994
213.804
223.743
233.802
243.967
254.228
264.574
274.993
285.475
296.008
306.582
317.185
327.806
338.435
349.06
359.67
370.253
380.799
391.296
401.731
412.094
422.372
432.552
442.624
452.573
462.388
472.055
481.562
490.895
500.043
508.991
517.726
526.235
534.507
542.527
550.283
557.763
564.956
571.848
578.43
584.689
590.616
596.202
601.437
606.313
610.821
614.953
618.701
622.063
625.032
627.601
629.765
631.53