/*--------------------------------*- C++ -*----------------------------------*\
  =========                 |
  \\      /  F ield         | OpenFOAM: The Open Source CFD Toolbox
   \\    /   O peration     | Website:  https://openfoam.org
    \\  /    A nd           | Version:  7
     \\/     M anipulation  |
\*---------------------------------------------------------------------------*/
FoamFile
{
    version     2.0;
    format      ascii;
    class       volScalarField;
    location    "288";
    object      k;
}
// * * * * * * * * * * * * * * * * * * * * * * * * * * * * * * * * * * * * * //

dimensions      [0 2 -2 0 0 0 0];

internalField   nonuniform List<scalar> 
12225
(
0.362817
0.343986
0.327752
0.309809
0.295412
0.283467
0.275529
0.270278
0.270336
0.271891
0.276029
0.280777
0.289795
0.295874
0.306559
0.313532
0.325486
0.330211
0.440186
0.468697
0.461606
0.448367
0.450346
0.458306
0.474579
0.498484
0.524413
0.55206
0.580729
0.606102
0.633783
0.653791
0.679629
0.692965
0.717811
0.724539
0.39054
0.417873
0.420232
0.416827
0.411628
0.407802
0.408021
0.410033
0.414565
0.421381
0.430716
0.439702
0.451149
0.461129
0.472785
0.483487
0.493423
0.505778
0.377546
0.386982
0.391407
0.391343
0.390221
0.387895
0.385664
0.384079
0.382884
0.382896
0.383354
0.384376
0.386268
0.388457
0.390893
0.394221
0.396509
0.40092
0.374562
0.37609
0.378412
0.378666
0.378263
0.377204
0.37549
0.373737
0.37201
0.370455
0.369255
0.368109
0.367378
0.366801
0.36644
0.366326
0.366342
0.366685
0.373814
0.372709
0.372645
0.372384
0.371761
0.370816
0.369554
0.368083
0.366572
0.364977
0.363528
0.362064
0.360756
0.359528
0.358397
0.357425
0.356436
0.355778
0.373782
0.371742
0.370386
0.369287
0.368234
0.367114
0.365915
0.364587
0.363239
0.361808
0.360423
0.359025
0.357679
0.356384
0.355122
0.353968
0.352795
0.351803
0.37382
0.37156
0.369634
0.367976
0.366501
0.365108
0.363776
0.36243
0.361108
0.359767
0.358451
0.357145
0.355865
0.354624
0.353403
0.352252
0.351101
0.350054
0.373832
0.371553
0.369449
0.367525
0.365777
0.364154
0.362645
0.361199
0.359818
0.358474
0.357171
0.355904
0.354669
0.353477
0.35231
0.351198
0.350099
0.349075
0.373831
0.37156
0.369418
0.367405
0.365529
0.363773
0.362133
0.360585
0.359122
0.357728
0.356395
0.355119
0.353889
0.352712
0.351571
0.350483
0.349422
0.348422
0.373829
0.37156
0.369413
0.367378
0.365458
0.363645
0.361937
0.360324
0.358799
0.357353
0.35598
0.354673
0.353425
0.352237
0.351096
0.35001
0.348961
0.347971
0.373828
0.371558
0.369409
0.36737
0.365439
0.363609
0.361876
0.360234
0.358678
0.357202
0.3558
0.354469
0.353201
0.351995
0.350843
0.349748
0.348696
0.347702
0.373827
0.371556
0.369405
0.367365
0.36543
0.363593
0.361851
0.360197
0.358626
0.357134
0.355716
0.354368
0.353085
0.351865
0.350701
0.349595
0.348536
0.347532
0.373826
0.371555
0.369401
0.367359
0.365422
0.363583
0.361837
0.360178
0.3586
0.357101
0.355674
0.354317
0.353025
0.351795
0.350622
0.349506
0.34844
0.347427
0.373826
0.371553
0.369398
0.367355
0.365416
0.363575
0.361826
0.360164
0.358584
0.357081
0.355651
0.35429
0.352993
0.351758
0.35058
0.349458
0.348388
0.347368
0.373826
0.371552
0.369396
0.367351
0.36541
0.363567
0.361817
0.360153
0.358571
0.357067
0.355634
0.35427
0.352971
0.351734
0.350554
0.349429
0.348356
0.347333
0.373825
0.371551
0.369394
0.367348
0.365406
0.363562
0.36181
0.360145
0.358561
0.357055
0.355621
0.354256
0.352955
0.351716
0.350534
0.349408
0.348333
0.347308
0.373825
0.371551
0.369393
0.367346
0.365403
0.363558
0.361805
0.360139
0.358554
0.357047
0.355612
0.354245
0.352943
0.351703
0.35052
0.349392
0.348316
0.347289
0.373825
0.37155
0.369393
0.367345
0.365402
0.363557
0.361804
0.360137
0.358552
0.357043
0.355607
0.35424
0.352938
0.351696
0.350513
0.349384
0.348307
0.34728
0.373825
0.371551
0.369393
0.367347
0.365404
0.363559
0.361806
0.360139
0.358554
0.357046
0.355611
0.354244
0.352941
0.3517
0.350516
0.349388
0.348311
0.347284
0.373826
0.371551
0.369395
0.367349
0.365407
0.363563
0.361811
0.360145
0.358562
0.357055
0.355621
0.354255
0.352954
0.351715
0.350533
0.349406
0.348332
0.347306
0.373826
0.371552
0.369397
0.367352
0.365412
0.363571
0.361822
0.360161
0.358583
0.357083
0.355656
0.354298
0.353006
0.351774
0.350601
0.349482
0.348416
0.347397
0.373826
0.371554
0.369399
0.367359
0.365428
0.363602
0.361875
0.36024
0.35869
0.35722
0.355823
0.354493
0.353226
0.352018
0.350865
0.349762
0.34871
0.3477
0.373828
0.371551
0.369412
0.367417
0.365556
0.363819
0.362189
0.360651
0.359189
0.357793
0.356456
0.355171
0.353935
0.352745
0.3516
0.350495
0.349435
0.348409
0.373823
0.371554
0.369604
0.367893
0.366339
0.364892
0.363495
0.362122
0.360761
0.359413
0.35808
0.356769
0.355488
0.354237
0.353028
0.351855
0.350733
0.349644
0.373788
0.371991
0.371113
0.370266
0.36936
0.368311
0.367048
0.365629
0.36412
0.362575
0.36103
0.359522
0.358073
0.356682
0.355381
0.354141
0.353009
0.351923
0.374355
0.375572
0.377775
0.377857
0.377288
0.375886
0.373835
0.371641
0.369505
0.367482
0.365664
0.364084
0.36271
0.361535
0.36061
0.359818
0.359289
0.358801
0.379125
0.394296
0.398249
0.396573
0.392538
0.387603
0.383646
0.380448
0.378269
0.376853
0.376498
0.376742
0.377416
0.378692
0.380443
0.382425
0.38483
0.387141
0.408394
0.427541
0.422416
0.411056
0.402227
0.397925
0.398628
0.400965
0.406073
0.413059
0.421005
0.429835
0.438844
0.4482
0.457318
0.466564
0.475336
0.484196
0.36605
0.353416
0.341988
0.33021
0.318982
0.308382
0.299411
0.291671
0.285404
0.280334
0.276682
0.273868
0.272313
0.271176
0.271213
0.271475
0.272192
0.273393
0.000542779
0.00318041
0.00594496
0.00838324
0.0107053
0.01332
0.0163481
0.0199531
0.0242196
0.0291285
0.0345765
0.0404328
0.0465619
0.0528524
0.0592064
0.0655524
0.0718264
0.0779842
0.083984
0.0897961
0.0953878
0.100723
0.105764
0.110446
0.114712
0.118465
0.121629
0.124086
0.12578
0.126636
0.126622
0.125866
0.124918
0.124181
0.128906
0.134106
0.13994
0.142902
0.140624
0.144031
0.149289
0.152677
0.148237
0.15835
0.164771
0.172767
0.180373
0.188447
0.196544
0.204887
0.213349
0.221997
0.230792
0.239753
0.248868
0.258145
0.267576
0.277165
0.286907
0.296804
0.30685
0.317046
0.327387
0.337871
0.348492
0.359248
0.370132
0.381141
0.392267
0.403505
0.414847
0.426288
0.437817
0.44943
0.461114
0.472863
0.484665
0.496514
0.508395
0.520303
0.532221
0.544143
0.556052
0.567942
0.579795
0.591603
0.603346
0.615017
0.626595
0.638068
0.649416
0.660617
0.671651
0.682494
0.693124
0.703522
0.713681
0.723629
0.733456
0.743006
0.752349
0.761446
0.770303
0.778901
0.787233
0.795288
0.803056
0.810528
0.817693
0.824545
0.831073
0.837271
0.84313
0.848644
0.853804
0.858608
0.863046
0.867116
0.870813
0.874135
0.877076
0.879633
0.881802
0.883584
0.884974
0.885976
0.886584
0.886794
0.886661
0.886182
0.885249
0.883897
0.882132
0.880078
0.877709
0.874905
0.871773
0.868286
0.864461
0.860305
0.855827
0.851038
0.845951
0.840568
0.8349
0.828956
0.82275
0.816289
0.809588
0.802656
0.795505
0.788148
0.780596
0.772862
0.764958
0.756897
0.748691
0.740355
0.731903
0.723353
0.714734
0.706106
0.697829
0.692147
0.688238
0.684454
0.680641
0.676784
0.672888
0.668958
0.664997
0.661006
0.656978
0.652898
0.64873
0.644396
0.639737
0.634314
0.627236
0.601293
0.00279714
0.011674
0.0177371
0.0222412
0.0262023
0.0300641
0.0341792
0.0387494
0.0438562
0.0494849
0.0555593
0.0619785
0.0686381
0.0754463
0.0823254
0.0892148
0.0960653
0.102841
0.109513
0.116059
0.122462
0.128699
0.134746
0.140565
0.146117
0.151339
0.156175
0.160561
0.164522
0.168152
0.17174
0.175944
0.182106
0.191907
0.201556
0.210353
0.219589
0.22708
0.232009
0.242792
0.256986
0.272651
0.283236
0.295339
0.307547
0.320408
0.333556
0.347089
0.360942
0.375125
0.389622
0.404436
0.419565
0.43501
0.450771
0.466849
0.483244
0.499959
0.516992
0.534345
0.552015
0.570003
0.588305
0.606921
0.625845
0.645074
0.664603
0.684427
0.704537
0.724928
0.74559
0.766514
0.787689
0.809105
0.830749
0.852609
0.874669
0.896916
0.919333
0.941906
0.964615
0.987444
1.01037
1.03338
1.05645
1.07956
1.10268
1.12579
1.14887
1.1719
1.19484
1.21767
1.24034
1.26283
1.28509
1.30708
1.32874
1.34999
1.37077
1.39127
1.41146
1.43132
1.45083
1.46997
1.48871
1.50704
1.52493
1.54237
1.55932
1.57578
1.59172
1.60712
1.62197
1.63625
1.64995
1.66303
1.67551
1.68734
1.69854
1.70908
1.71895
1.72814
1.73665
1.74445
1.75155
1.75795
1.76363
1.76861
1.77287
1.77643
1.77927
1.7813
1.78247
1.78303
1.78306
1.78225
1.78076
1.77857
1.77569
1.77214
1.76793
1.76306
1.75757
1.75144
1.74471
1.73739
1.72949
1.72104
1.71204
1.70253
1.69251
1.68201
1.67105
1.65966
1.64784
1.63563
1.62304
1.6101
1.59684
1.58329
1.56946
1.55541
1.54127
1.52746
1.51385
1.50014
1.4863
1.47235
1.45833
1.44425
1.43012
1.41596
1.40178
1.38758
1.37333
1.359
1.34442
1.32958
1.31311
1.27646
0.00599587
0.0201947
0.0283028
0.0343097
0.0396199
0.0447778
0.0500845
0.0557144
0.0617455
0.0681813
0.0749753
0.0820566
0.0893488
0.0967825
0.1043
0.111856
0.119418
0.126964
0.134482
0.141969
0.149426
0.156859
0.164276
0.171685
0.179097
0.186527
0.194011
0.201616
0.209469
0.21775
0.226723
0.236686
0.247856
0.259985
0.271967
0.283891
0.296054
0.308376
0.321363
0.336509
0.352531
0.368847
0.384395
0.400403
0.416744
0.433533
0.450724
0.46832
0.48631
0.504691
0.523458
0.542611
0.562147
0.582067
0.602372
0.623061
0.644134
0.665592
0.687433
0.709657
0.732261
0.755244
0.778602
0.802331
0.826427
0.850882
0.875692
0.900847
0.92634
0.95216
0.978297
1.00474
1.03147
1.05849
1.08576
1.11329
1.14104
1.16901
1.19717
1.2255
1.25398
1.2826
1.31132
1.34012
1.36898
1.39787
1.42677
1.45564
1.48446
1.51319
1.54181
1.57029
1.59859
1.62667
1.65451
1.68207
1.70932
1.73625
1.76282
1.78904
1.81487
1.84028
1.86524
1.88973
1.91371
1.93716
1.96004
1.98234
2.00402
2.02506
2.04543
2.06511
2.08407
2.1023
2.11977
2.13647
2.15236
2.16744
2.18169
2.1951
2.20764
2.21931
2.23009
2.23997
2.24895
2.25701
2.26416
2.27039
2.2757
2.28009
2.28354
2.28603
2.28744
2.288
2.28778
2.2866
2.28451
2.28153
2.27766
2.27293
2.26735
2.26093
2.2537
2.24567
2.23686
2.2273
2.21699
2.20598
2.19427
2.1819
2.16889
2.15526
2.14105
2.12627
2.11096
2.09515
2.07886
2.06213
2.04499
2.02746
2.0096
1.99145
1.97312
1.95484
1.93657
1.91817
1.89963
1.88096
1.86221
1.84339
1.82453
1.80567
1.78682
1.768
1.74923
1.73054
1.71187
1.69333
1.67368
1.64181
0.00969076
0.0283
0.0383214
0.0456198
0.051975
0.0580455
0.064166
0.0705227
0.0772059
0.0842376
0.091593
0.0992224
0.107068
0.115074
0.123198
0.131406
0.139677
0.148002
0.156383
0.164832
0.173366
0.182013
0.190804
0.199771
0.208954
0.218393
0.228144
0.238273
0.24887
0.260042
0.271898
0.284517
0.297893
0.311875
0.32619
0.340856
0.355977
0.371647
0.388021
0.405261
0.423104
0.441356
0.459825
0.478662
0.49788
0.517515
0.537575
0.558067
0.578992
0.600354
0.622151
0.644386
0.667059
0.690171
0.713723
0.737716
0.762151
0.787027
0.812345
0.838104
0.864302
0.890936
0.918003
0.9455
0.973421
1.00176
1.03051
1.05966
1.08921
1.11913
1.14943
1.18009
1.21109
1.24241
1.27405
1.30597
1.33817
1.37063
1.40331
1.43619
1.46926
1.50249
1.53585
1.56931
1.60284
1.63641
1.66999
1.70356
1.73707
1.77049
1.8038
1.83695
1.86991
1.90265
1.93514
1.96733
1.9992
2.03071
2.06184
2.09255
2.1228
2.15256
2.18178
2.21045
2.23851
2.26594
2.2927
2.31876
2.34409
2.36866
2.39243
2.41539
2.43749
2.45872
2.47905
2.49845
2.51691
2.53439
2.5509
2.56639
2.58087
2.59431
2.60669
2.61802
2.62827
2.63744
2.64552
2.65252
2.65843
2.66325
2.66696
2.66955
2.67089
2.67126
2.67062
2.66888
2.66608
2.66222
2.65733
2.65143
2.64452
2.63664
2.62781
2.61804
2.60736
2.5958
2.58337
2.57012
2.55606
2.54123
2.52566
2.50937
2.4924
2.47478
2.45655
2.43773
2.41837
2.39849
2.37814
2.35736
2.33618
2.31468
2.29294
2.27111
2.24918
2.22711
2.20488
2.18253
2.16008
2.13758
2.11506
2.09256
2.07012
2.04779
2.02562
2.00369
1.98205
1.96089
1.93911
1.90977
0.0134241
0.0359055
0.0476895
0.0561761
0.0634575
0.0702923
0.07706
0.0839718
0.09114
0.0986095
0.10638
0.114424
0.122701
0.131173
0.139806
0.148577
0.157476
0.166501
0.175663
0.184983
0.194488
0.204214
0.214201
0.224491
0.235128
0.246156
0.257623
0.269577
0.282073
0.295165
0.3089
0.3233
0.338347
0.35399
0.370159
0.386846
0.404071
0.421868
0.440263
0.459265
0.478819
0.498865
0.51935
0.54028
0.561657
0.583492
0.605794
0.62857
0.651825
0.675565
0.699792
0.724511
0.749723
0.775432
0.80164
0.82835
0.855561
0.883277
0.911498
0.940222
0.96945
0.99918
1.02941
1.06013
1.09135
1.12305
1.15522
1.18787
1.22097
1.25452
1.2885
1.32291
1.35772
1.39291
1.42848
1.46439
1.50063
1.53717
1.57398
1.61105
1.64834
1.68583
1.72348
1.76126
1.79914
1.83708
1.87505
1.91301
1.95093
1.98877
2.02648
2.06404
2.1014
2.13852
2.17537
2.2119
2.24807
2.28385
2.31918
2.35403
2.38835
2.42211
2.45526
2.48777
2.51958
2.55066
2.58098
2.61048
2.63915
2.66693
2.69381
2.71973
2.74468
2.76862
2.79152
2.81336
2.83411
2.85374
2.87224
2.88958
2.90575
2.92073
2.9345
2.94705
2.95837
2.96845
2.97729
2.98489
2.99124
2.99634
3.00018
3.00271
3.00388
3.00397
3.00282
3.00045
2.99687
2.9921
2.98616
2.97906
2.97083
2.9615
2.95109
2.93962
2.92713
2.91364
2.89918
2.88379
2.8675
2.85034
2.83235
2.81356
2.79401
2.77373
2.75277
2.73116
2.70895
2.68616
2.66286
2.63907
2.61486
2.59028
2.56541
2.54035
2.51514
2.48976
2.46421
2.43854
2.41278
2.38697
2.36117
2.33542
2.30979
2.28434
2.25917
2.2344
2.21017
2.18666
2.16296
2.13422
0.0169945
0.042825
0.0561929
0.0657623
0.0738783
0.0813834
0.0886999
0.0960651
0.103614
0.111415
0.119492
0.12784
0.136438
0.145263
0.154293
0.163514
0.172923
0.182525
0.192336
0.20238
0.212691
0.223303
0.234261
0.245605
0.257378
0.26962
0.282368
0.295658
0.309521
0.323988
0.339081
0.35481
0.371171
0.388146
0.405713
0.423858
0.442579
0.461878
0.481756
0.502209
0.523223
0.544781
0.566862
0.589459
0.612568
0.636194
0.66034
0.685012
0.710219
0.735964
0.762255
0.789096
0.816492
0.844448
0.872968
0.902055
0.931712
0.961942
0.992747
1.02413
1.05608
1.08862
1.12172
1.1554
1.18964
1.22445
1.25981
1.29571
1.33214
1.3691
1.40657
1.44453
1.48297
1.52186
1.5612
1.60094
1.64107
1.68157
1.72239
1.76353
1.80493
1.84658
1.88843
1.93045
1.97259
2.01483
2.05712
2.09942
2.14169
2.18388
2.22595
2.26786
2.30956
2.351
2.39214
2.43293
2.47332
2.51326
2.5527
2.59159
2.6299
2.66756
2.70454
2.74078
2.77624
2.81087
2.84464
2.87749
2.90938
2.94028
2.97014
2.99893
3.02661
3.05315
3.07852
3.10267
3.1256
3.14727
3.16765
3.18672
3.20447
3.22087
3.23592
3.24958
3.26186
3.27275
3.28224
3.29033
3.29702
3.3023
3.30618
3.30857
3.30952
3.30921
3.30751
3.30444
3.30002
3.29428
3.28723
3.2789
3.26932
3.25851
3.2465
3.23333
3.21902
3.20361
3.18713
3.16962
3.15112
3.13167
3.11131
3.09007
3.068
3.04514
3.02153
2.99721
2.97224
2.94665
2.9205
2.89382
2.86669
2.83915
2.81128
2.78317
2.75484
2.72633
2.69765
2.66884
2.63994
2.61102
2.58212
2.55332
2.52469
2.49632
2.46833
2.4409
2.41419
2.38841
2.36271
2.33336
0.0202701
0.0489365
0.0636844
0.0742102
0.0830643
0.0911571
0.098946
0.106691
0.114547
0.122603
0.130906
0.13947
0.148295
0.157371
0.16669
0.176247
0.186045
0.196093
0.206412
0.217026
0.227969
0.239276
0.250987
0.263141
0.275776
0.288925
0.302621
0.316888
0.331749
0.347222
0.36332
0.380051
0.397415
0.415407
0.434019
0.453243
0.473072
0.493504
0.514536
0.536165
0.558388
0.581197
0.604587
0.628553
0.653094
0.678212
0.703911
0.730197
0.757078
0.784561
0.812652
0.84136
0.87069
0.90065
0.931244
0.96248
0.994361
1.02689
1.06008
1.09392
1.12842
1.16358
1.19939
1.23587
1.27299
1.31076
1.34917
1.38822
1.42788
1.46815
1.50901
1.55045
1.59245
1.63498
1.67802
1.72155
1.76554
1.80996
1.85478
1.89996
1.94547
1.99128
2.03733
2.08359
2.13001
2.17656
2.22318
2.26983
2.31646
2.36302
2.40945
2.45572
2.50176
2.54752
2.59295
2.63799
2.68258
2.72667
2.77021
2.81313
2.85539
2.89694
2.93771
2.97766
3.01673
3.05488
3.09205
3.1282
3.16327
3.19723
3.23002
3.26162
3.29197
3.32104
3.3488
3.37521
3.40024
3.42386
3.44605
3.46678
3.48602
3.50377
3.52
3.5347
3.54786
3.55947
3.56952
3.57802
3.58496
3.59035
3.59418
3.59637
3.59704
3.59623
3.59391
3.59008
3.58477
3.57799
3.56979
3.56018
3.5492
3.53687
3.52324
3.50832
3.49218
3.47483
3.45632
3.43669
3.41599
3.39426
3.37154
3.34787
3.32331
3.2979
3.27168
3.24471
3.21703
3.1887
3.15977
3.13028
3.10029
3.06987
3.03909
3.00802
2.9767
2.94517
2.91347
2.88164
2.84973
2.81782
2.78595
2.75422
2.72271
2.69153
2.66084
2.63082
2.60167
2.57358
2.54577
2.51497
0.023158
0.0541649
0.0700747
0.0814142
0.0908994
0.0994944
0.107683
0.115744
0.123846
0.132098
0.140563
0.149275
0.15825
0.167494
0.177008
0.186799
0.196873
0.207247
0.21794
0.228978
0.240392
0.252216
0.264486
0.277236
0.290499
0.304305
0.31868
0.333645
0.349218
0.365413
0.38224
0.399705
0.417813
0.436563
0.455953
0.475982
0.496647
0.517946
0.539878
0.562445
0.585646
0.60948
0.633948
0.659051
0.68479
0.711168
0.738193
0.765872
0.794212
0.823223
0.852913
0.883293
0.91437
0.946154
0.978652
1.01187
1.04582
1.08051
1.11594
1.15211
1.18903
1.22671
1.26513
1.30431
1.34423
1.38489
1.42629
1.46842
1.51126
1.5548
1.59902
1.64391
1.68945
1.73561
1.78236
1.82969
1.87754
1.9259
1.97472
2.02398
2.07361
2.1236
2.17387
2.2244
2.27514
2.32602
2.377
2.42803
2.47904
2.52999
2.58081
2.63145
2.68185
2.73193
2.78165
2.83094
2.87973
2.92796
2.97558
3.02251
3.06871
3.11411
3.15865
3.20227
3.24491
3.28653
3.32706
3.36645
3.40464
3.4416
3.47726
3.5116
3.54455
3.57608
3.60616
3.63474
3.66179
3.68728
3.71119
3.73348
3.75414
3.77314
3.79047
3.80611
3.82005
3.83229
3.84282
3.85164
3.85875
3.86415
3.86786
3.86978
3.87008
3.86872
3.8657
3.86104
3.85477
3.84691
3.8375
3.82656
3.81413
3.80025
3.78496
3.76828
3.75027
3.73097
3.71043
3.68868
3.66578
3.64177
3.61671
3.59064
3.56362
3.53569
3.50691
3.47733
3.44701
3.41599
3.38433
3.35209
3.31933
3.28611
3.25249
3.21855
3.18434
3.1499
3.11528
3.08054
3.04573
3.01092
2.9762
2.94163
2.90734
2.87345
2.84012
2.80756
2.77598
2.74554
2.71551
2.68311
0.0256031
0.0584838
0.0753318
0.0873334
0.0973345
0.106341
0.114856
0.123169
0.131464
0.13986
0.148435
0.157239
0.166302
0.175642
0.185274
0.19521
0.205464
0.216053
0.227
0.238329
0.25007
0.262253
0.274909
0.28807
0.301764
0.316019
0.330855
0.346294
0.362351
0.379038
0.396367
0.414345
0.432978
0.45227
0.472225
0.492844
0.51413
0.536085
0.558712
0.582014
0.605997
0.630663
0.656018
0.682067
0.708816
0.736271
0.764441
0.793335
0.822965
0.853341
0.884475
0.916379
0.949062
0.982538
1.01682
1.05191
1.08782
1.12456
1.16214
1.20056
1.23983
1.27995
1.32093
1.36276
1.40544
1.44896
1.49333
1.53852
1.58452
1.63133
1.67892
1.72727
1.77636
1.82617
1.87665
1.92778
1.97953
2.03185
2.08471
2.13806
2.19185
2.24604
2.30057
2.35539
2.41045
2.46568
2.52104
2.57644
2.63185
2.68718
2.74238
2.79737
2.8521
2.90648
2.96046
3.01396
3.0669
3.11923
3.17087
3.22176
3.27183
3.32101
3.36923
3.41645
3.46258
3.50757
3.55136
3.5939
3.63512
3.67496
3.71339
3.75035
3.78579
3.81967
3.85194
3.88258
3.91153
3.93878
3.96429
3.98803
4.00998
4.03012
4.04843
4.0649
4.07952
4.09228
4.10318
4.11221
4.11939
4.12472
4.1282
4.12979
4.12961
4.12762
4.12383
4.11828
4.11098
4.10199
4.09131
4.07901
4.0651
4.04963
4.03265
4.0142
3.99432
3.97307
3.95048
3.92663
3.90155
3.87529
3.84793
3.81949
3.79006
3.75967
3.72838
3.69626
3.66335
3.62972
3.59542
3.56052
3.52506
3.48913
3.45278
3.41607
3.37908
3.34185
3.30444
3.2669
3.2293
3.19172
3.15424
3.11696
3.07999
3.04347
3.00758
2.97253
2.93853
2.90572
2.87339
2.83927
0.0275761
0.0619025
0.0794722
0.0919832
0.102382
0.111706
0.12047
0.128974
0.137406
0.145898
0.154537
0.163384
0.172483
0.181862
0.191544
0.201549
0.211895
0.222603
0.233698
0.245202
0.257143
0.269548
0.282445
0.295861
0.309823
0.324353
0.339472
0.3552
0.371553
0.388545
0.406189
0.424493
0.443469
0.463123
0.483462
0.504495
0.526227
0.548665
0.571817
0.595691
0.620294
0.645635
0.671724
0.698568
0.726179
0.754567
0.783743
0.813721
0.844514
0.876137
0.908603
0.941926
0.976121
1.0112
1.04718
1.08407
1.12188
1.16062
1.20031
1.24094
1.28254
1.32509
1.3686
1.41308
1.45851
1.5049
1.55224
1.60051
1.64971
1.6998
1.75078
1.80262
1.8553
1.90877
1.96301
2.01798
2.07364
2.12995
2.18686
2.24432
2.30227
2.36067
2.41945
2.47856
2.53792
2.59748
2.65718
2.71693
2.77667
2.83633
2.89584
2.95511
3.01409
3.07268
3.13081
3.18841
3.2454
3.30171
3.35725
3.41195
3.46575
3.51857
3.57033
3.62098
3.67044
3.71865
3.76554
3.81105
3.85512
3.89768
3.9387
3.97811
4.01586
4.0519
4.08621
4.11872
4.14941
4.17824
4.20518
4.2302
4.25329
4.27441
4.29355
4.3107
4.32585
4.33899
4.35012
4.35925
4.36637
4.37151
4.37466
4.37583
4.37508
4.37238
4.36775
4.36122
4.35285
4.34266
4.33069
4.31697
4.30156
4.28449
4.26582
4.24559
4.22385
4.20066
4.17607
4.15013
4.12291
4.09447
4.06485
4.03412
4.00234
3.96957
3.93586
3.90129
3.8659
3.82976
3.79293
3.75548
3.71745
3.67893
3.63996
3.60063
3.561
3.52112
3.48105
3.44086
3.40062
3.3604
3.32031
3.28043
3.2409
3.20187
3.16351
3.12603
3.08964
3.05446
3.01983
2.98379
0.0290744
0.064461
0.0825492
0.0954237
0.106104
0.115651
0.124588
0.133216
0.141731
0.15027
0.158929
0.167776
0.176864
0.18623
0.195907
0.20592
0.21629
0.227041
0.238195
0.249775
0.261807
0.274315
0.287325
0.300861
0.314947
0.329606
0.344859
0.360724
0.377219
0.394361
0.412166
0.430646
0.449814
0.469684
0.490266
0.511572
0.533613
0.556401
0.579949
0.604267
0.629369
0.655266
0.681974
0.709506
0.737877
0.767101
0.797193
0.828171
0.860052
0.892854
0.926592
0.961286
0.996951
1.0336
1.07126
1.10993
1.14963
1.19038
1.23218
1.27505
1.31898
1.36399
1.41008
1.45724
1.50547
1.55478
1.60514
1.65654
1.70897
1.7624
1.81681
1.87218
1.92847
1.98565
2.04368
2.10251
2.16209
2.22239
2.28334
2.34489
2.40698
2.46955
2.53252
2.59585
2.65945
2.72325
2.78717
2.85115
2.91511
2.97896
3.04262
3.10602
3.16907
3.23168
3.29378
3.35528
3.4161
3.47616
3.53537
3.59366
3.65095
3.70716
3.76222
3.81605
3.86858
3.91974
3.96947
4.01769
4.06434
4.10936
4.1527
4.1943
4.23411
4.27207
4.30815
4.3423
4.37448
4.40466
4.4328
4.45889
4.48289
4.50478
4.52456
4.5422
4.5577
4.57105
4.58225
4.59132
4.59825
4.60306
4.60577
4.60639
4.60499
4.60147
4.59591
4.58836
4.57885
4.56742
4.55411
4.53897
4.52204
4.50337
4.48301
4.46103
4.43746
4.41238
4.38583
4.35789
4.3286
4.29804
4.26627
4.23335
4.19933
4.16429
4.12829
4.0914
4.05366
4.01516
3.97595
3.93609
3.89565
3.85469
3.81329
3.7715
3.7294
3.68704
3.6445
3.60183
3.55912
3.51644
3.4739
3.43159
3.38965
3.34824
3.30752
3.26771
3.229
3.19152
3.15462
3.11662
0.0301173
0.066227
0.0846452
0.0977478
0.1086
0.118279
0.12731
0.135997
0.14454
0.153077
0.161713
0.170523
0.179565
0.188882
0.198509
0.208476
0.218807
0.229526
0.240656
0.252222
0.264247
0.276753
0.289766
0.303308
0.317403
0.332073
0.347339
0.363219
0.379736
0.396909
0.414757
0.433297
0.452549
0.472528
0.49325
0.514732
0.53699
0.560043
0.583906
0.608594
0.634125
0.660514
0.687782
0.715949
0.745034
0.775057
0.806037
0.837997
0.870957
0.904938
0.939962
0.976047
1.01321
1.05148
1.09086
1.13137
1.17303
1.21585
1.25985
1.30502
1.35139
1.39895
1.4477
1.49764
1.54877
1.60107
1.65454
1.70916
1.7649
1.82174
1.87964
1.93859
1.99854
2.05944
2.12126
2.18394
2.24743
2.31168
2.37662
2.44219
2.50832
2.57495
2.64199
2.70939
2.77705
2.84491
2.91287
2.98086
3.04879
3.11657
3.18413
3.25136
3.31819
3.38452
3.45027
3.51534
3.57965
3.64311
3.70564
3.76716
3.82757
3.8868
3.94477
4.0014
4.05663
4.11036
4.16254
4.2131
4.26197
4.30908
4.35438
4.39781
4.43932
4.47885
4.51637
4.55183
4.58518
4.6164
4.64546
4.67232
4.69696
4.71937
4.73953
4.75742
4.77305
4.7864
4.79748
4.8063
4.81287
4.81721
4.81934
4.81929
4.81714
4.8127
4.80613
4.79748
4.78679
4.77408
4.75942
4.74285
4.72441
4.70416
4.68216
4.65847
4.63314
4.60624
4.57783
4.54797
4.51674
4.48418
4.45039
4.41541
4.37931
4.34216
4.30404
4.26499
4.2251
4.18441
4.14301
4.10095
4.0583
4.01512
3.97148
3.92745
3.88309
3.83848
3.79368
3.74875
3.70378
3.65886
3.61407
3.56952
3.52536
3.48174
3.43882
3.39683
3.35591
3.31622
3.27714
3.23725
0.0307487
0.067281
0.0858595
0.0990667
0.10999
0.119713
0.128762
0.137446
0.145967
0.154465
0.163045
0.171783
0.180739
0.189962
0.199491
0.209358
0.21959
0.230214
0.241252
0.252727
0.264663
0.277083
0.29001
0.303468
0.317481
0.332075
0.347276
0.363098
0.379563
0.396694
0.414515
0.433047
0.452313
0.472335
0.493136
0.514742
0.537186
0.560483
0.584652
0.609712
0.63568
0.662567
0.690407
0.719231
0.749063
0.77993
0.811858
0.844872
0.878997
0.914258
0.950676
0.988275
1.02707
1.06709
1.10835
1.15086
1.19464
1.23971
1.28607
1.33373
1.3827
1.43297
1.48456
1.53744
1.59161
1.64706
1.70377
1.76171
1.82086
1.88118
1.94265
2.00521
2.06883
2.13346
2.19904
2.26552
2.33283
2.40091
2.4697
2.53913
2.60911
2.67958
2.75045
2.82164
2.89307
2.96466
3.03631
3.10794
3.17946
3.25078
3.32179
3.39243
3.46258
3.53215
3.60106
3.66921
3.73651
3.80287
3.8682
3.93241
3.99543
4.05715
4.11751
4.17643
4.23382
4.28962
4.34374
4.39613
4.44671
4.49542
4.5422
4.58699
4.62975
4.67041
4.70894
4.74528
4.77941
4.81129
4.84089
4.86817
4.89312
4.91572
4.93596
4.95383
4.96931
4.98242
4.99315
5.00152
5.00754
5.01124
5.01263
5.01183
5.00876
5.00332
4.99568
4.98588
4.97396
4.95997
4.94395
4.92596
4.90605
4.88428
4.86071
4.83539
4.8084
4.7798
4.74965
4.71802
4.68499
4.65061
4.61497
4.57812
4.54014
4.5011
4.46106
4.42009
4.37826
4.33564
4.29229
4.24828
4.20366
4.15852
4.11291
4.0669
4.02057
3.97397
3.92717
3.88025
3.83329
3.78636
3.73957
3.69304
3.64688
3.60126
3.55635
3.51234
3.46939
3.42764
3.38653
3.34489
0.0309469
0.0676492
0.0862598
0.0994731
0.110382
0.120079
0.129088
0.137718
0.146169
0.154585
0.163074
0.171723
0.180589
0.189716
0.199144
0.208906
0.21903
0.229543
0.240467
0.251826
0.263644
0.275944
0.288749
0.302086
0.315977
0.330448
0.345522
0.361224
0.377584
0.39463
0.412392
0.430899
0.450179
0.47026
0.491171
0.512939
0.535588
0.55915
0.58365
0.609113
0.63557
0.663039
0.691562
0.721179
0.751916
0.783803
0.81687
0.851148
0.886665
0.923449
0.96152
1.0009
1.04162
1.08368
1.1271
1.17191
1.21812
1.26572
1.31474
1.36518
1.41703
1.47029
1.52496
1.58101
1.63844
1.69722
1.75733
1.81873
1.88138
1.94526
2.01031
2.07649
2.14374
2.212
2.28122
2.35133
2.42227
2.49395
2.56631
2.63927
2.71275
2.78667
2.86094
2.93548
3.01019
3.08499
3.15979
3.2345
3.30901
3.38324
3.45709
3.53046
3.60327
3.67542
3.7468
3.81733
3.88692
3.95547
4.02289
4.0891
4.154
4.21752
4.27957
4.34008
4.39896
4.45614
4.51155
4.56511
4.61677
4.66646
4.71412
4.75969
4.80312
4.84436
4.88337
4.9201
4.95452
4.98659
5.01628
5.04357
5.06843
5.09086
5.11083
5.12834
5.14339
5.15598
5.16611
5.1738
5.17907
5.18193
5.18245
5.18079
5.17665
5.17013
5.16136
5.15038
5.13723
5.12195
5.10461
5.08526
5.06394
5.04074
5.0157
4.98889
4.96037
4.93023
4.89852
4.86532
4.83069
4.79471
4.75745
4.71899
4.67938
4.63871
4.59703
4.55442
4.51096
4.46669
4.42169
4.37604
4.32978
4.28298
4.23572
4.18806
4.14006
4.09179
4.04332
3.99472
3.94607
3.89746
3.84897
3.80073
3.75286
3.70551
3.65885
3.61305
3.56828
3.52469
3.48174
3.43856
0.0308816
0.0675675
0.0861122
0.0992695
0.110121
0.119751
0.128684
0.137228
0.145584
0.153897
0.16227
0.170783
0.179497
0.188462
0.197718
0.207302
0.217242
0.227567
0.238302
0.24947
0.261096
0.273207
0.285827
0.298984
0.312706
0.327022
0.341964
0.357567
0.373864
0.390888
0.408674
0.427258
0.446672
0.466949
0.488122
0.510227
0.533299
0.557384
0.582503
0.60868
0.635931
0.664297
0.69384
0.724592
0.756592
0.789878
0.824483
0.860446
0.897807
0.936581
0.976788
1.01845
1.06158
1.10618
1.15228
1.19988
1.24899
1.2996
1.35173
1.40537
1.4605
1.51711
1.57518
1.6347
1.69562
1.75793
1.82158
1.88653
1.95273
2.02014
2.0887
2.15835
2.22904
2.3007
2.37325
2.44663
2.52077
2.59559
2.67101
2.74694
2.82331
2.90002
2.977
3.05415
3.13138
3.2086
3.28573
3.36265
3.43929
3.51555
3.59133
3.66653
3.74107
3.81485
3.88777
3.95974
4.03067
4.10048
4.16906
4.23633
4.30221
4.36662
4.42947
4.49069
4.5502
4.60793
4.6638
4.71775
4.76971
4.81962
4.86743
4.91307
4.9565
4.99767
5.03654
5.07306
5.1072
5.13892
5.1682
5.19502
5.21935
5.24118
5.26051
5.27731
5.2916
5.30337
5.31264
5.31941
5.32372
5.32558
5.32514
5.32244
5.31714
5.30949
5.29956
5.28738
5.27301
5.2565
5.2379
5.21727
5.19468
5.17017
5.14382
5.1157
5.08587
5.0544
5.02137
4.98684
4.95089
4.91359
4.87502
4.83524
4.79433
4.75235
4.70938
4.66549
4.62073
4.57519
4.52892
4.48198
4.43445
4.38639
4.33786
4.28892
4.23964
4.19008
4.14032
4.09041
4.04045
3.9905
3.94067
3.89107
3.84181
3.79304
3.74493
3.69764
3.65132
3.60613
3.5616
3.51715
0.0306749
0.0672325
0.0855901
0.0985888
0.109281
0.118748
0.127511
0.135878
0.144052
0.152176
0.160356
0.16867
0.177185
0.185954
0.195017
0.204409
0.214157
0.224291
0.234838
0.245826
0.257284
0.26924
0.281726
0.294776
0.308425
0.322707
0.337661
0.353325
0.369737
0.386941
0.404981
0.423908
0.443765
0.464585
0.486406
0.509264
0.533185
0.558172
0.584297
0.611629
0.640238
0.670175
0.701471
0.734159
0.768273
0.803849
0.840914
0.879492
0.919596
0.961256
1.0045
1.04935
1.0958
1.14384
1.19347
1.24469
1.29749
1.35187
1.40779
1.46525
1.52422
1.58467
1.64657
1.70987
1.77454
1.84052
1.90778
1.97626
2.0459
2.11665
2.18843
2.2612
2.33487
2.40939
2.48467
2.56065
2.63725
2.71438
2.79198
2.86996
2.94823
3.02672
3.10534
3.184
3.26261
3.34109
3.41934
3.49728
3.57481
3.65185
3.72831
3.80409
3.8791
3.95326
4.02647
4.09864
4.16968
4.23952
4.30806
4.37522
4.44091
4.50506
4.56759
4.62843
4.68751
4.74474
4.80007
4.85342
4.90473
4.95395
5.00102
5.04589
5.08851
5.12883
5.16681
5.20242
5.23561
5.26636
5.29464
5.32043
5.34371
5.36446
5.38269
5.39837
5.41153
5.42216
5.43026
5.43584
5.43895
5.43962
5.43814
5.43415
5.42763
5.41879
5.40766
5.39429
5.37873
5.36104
5.34127
5.31948
5.29573
5.27009
5.24262
5.21339
5.18247
5.14993
5.11585
5.08029
5.04332
5.00503
4.96548
4.92474
4.88289
4.83998
4.7961
4.7513
4.70566
4.65924
4.6121
4.56431
4.51593
4.46701
4.41762
4.36783
4.31768
4.26725
4.21661
4.16581
4.11492
4.06404
4.01325
3.96264
3.91236
3.86252
3.81328
3.76481
3.71724
3.67076
3.62491
3.57948
0.030258
0.0665362
0.0846061
0.0973702
0.107838
0.117085
0.125631
0.133786
0.141753
0.149675
0.157658
0.165782
0.174111
0.182699
0.191586
0.200812
0.210411
0.220415
0.230855
0.241765
0.253181
0.265141
0.277682
0.290846
0.304676
0.319227
0.334555
0.350696
0.367696
0.385603
0.404456
0.424273
0.445088
0.466997
0.49007
0.514367
0.539951
0.566907
0.595268
0.625084
0.656411
0.689295
0.723764
0.759847
0.79757
0.83695
0.877998
0.920721
0.965124
1.0112
1.05896
1.10833
1.15932
1.21191
1.26609
1.32183
1.3791
1.43787
1.4981
1.55975
1.62277
1.68714
1.75278
1.81966
1.88772
1.9569