/*--------------------------------*- C++ -*----------------------------------*\
  =========                 |
  \\      /  F ield         | OpenFOAM: The Open Source CFD Toolbox
   \\    /   O peration     | Website:  https://openfoam.org
    \\  /    A nd           | Version:  7
     \\/     M anipulation  |
\*---------------------------------------------------------------------------*/
FoamFile
{
    version     2.0;
    format      ascii;
    class       volScalarField;
    location    "288";
    object      nut;
}
// * * * * * * * * * * * * * * * * * * * * * * * * * * * * * * * * * * * * * //

dimensions      [0 2 -1 0 0 0 0];

internalField   nonuniform List<scalar> 
12225
(
4.14928e-05
3.93401e-05
3.74838e-05
3.54318e-05
3.37853e-05
3.24192e-05
3.15114e-05
3.09108e-05
3.09171e-05
3.10984e-05
3.15632e-05
3.21284e-05
3.31244e-05
3.3881e-05
3.50056e-05
3.60029e-05
3.70532e-05
3.72026e-05
0.00033221
0.000215179
0.00017927
0.000157678
0.000146211
0.000138209
0.000132761
0.000131631
0.000129529
0.000130045
0.000129064
0.000129424
0.000128673
0.000128547
0.000128075
0.000127452
0.000127289
0.000126638
0.000668674
0.000450658
0.00035576
0.00030983
0.000275291
0.000251093
0.000231724
0.000217267
0.000202704
0.000192112
0.000182643
0.000175208
0.000169398
0.000163691
0.000160319
0.000155607
0.000153808
0.000149947
0.000801678
0.000691654
0.000572565
0.000500047
0.000449396
0.000411972
0.000380801
0.000355992
0.000334032
0.000314779
0.000298354
0.000281723
0.000270335
0.000256102
0.000248239
0.000236225
0.000230458
0.000220549
0.000839622
0.000810182
0.000740718
0.0006764
0.000623948
0.000581372
0.00054589
0.000514551
0.000489538
0.000464436
0.000445883
0.000424094
0.000409967
0.000390847
0.000379939
0.000363173
0.000354562
0.000339656
0.000850344
0.000843275
0.000819555
0.00078652
0.000750786
0.000715876
0.00068577
0.000656131
0.000632561
0.000607528
0.000589014
0.000567272
0.000552311
0.000533143
0.000520833
0.000503816
0.0004934
0.000477639
0.000851579
0.000851018
0.0008433
0.000833474
0.000817118
0.000796948
0.000777877
0.000756738
0.000738907
0.000719157
0.000703546
0.000685642
0.000672146
0.000655961
0.00064435
0.000629603
0.000619593
0.000605283
0.000851582
0.000851815
0.000850039
0.00084746
0.000841403
0.000833751
0.000824825
0.000813436
0.000802815
0.000790478
0.000779724
0.000767555
0.000757442
0.000745811
0.000736571
0.00072558
0.000717214
0.000706133
0.000851673
0.00085153
0.000851016
0.000850343
0.000848875
0.000846171
0.000843027
0.000838307
0.000833405
0.000827365
0.000821222
0.000814781
0.00080842
0.000801543
0.000795262
0.000788449
0.000782211
0.00077532
0.000851754
0.000851386
0.000851043
0.000850633
0.000850247
0.000849368
0.000848405
0.000846781
0.000844957
0.000842532
0.000839926
0.000836804
0.0008338
0.000830162
0.000826981
0.000822943
0.00081992
0.000815329
0.000851784
0.000851358
0.000851012
0.000850613
0.000850329
0.000849905
0.000849526
0.000848929
0.000848303
0.000847394
0.000846467
0.000845179
0.000843993
0.000842356
0.000841001
0.00083904
0.000837649
0.000835375
0.000851788
0.000851359
0.000850995
0.000850605
0.000850292
0.000849938
0.000849646
0.00084928
0.000848955
0.000848505
0.000848099
0.000847509
0.000846999
0.000846246
0.000845644
0.000844724
0.000844062
0.000842981
0.000851786
0.000851363
0.000850985
0.000850604
0.000850269
0.000849926
0.00084963
0.000849313
0.000849042
0.000848729
0.000848462
0.000848127
0.000847844
0.000847467
0.000847157
0.000846727
0.000846388
0.000845904
0.000851783
0.000851364
0.000850978
0.000850602
0.000850256
0.000849916
0.000849607
0.0008493
0.000849022
0.000848741
0.000848488
0.000848224
0.000847989
0.000847735
0.000847508
0.000847258
0.000847033
0.000846783
0.000851781
0.000851364
0.000850972
0.000850598
0.000850246
0.000849908
0.000849591
0.000849286
0.000849
0.000848723
0.000848463
0.000848211
0.000847975
0.000847745
0.000847527
0.000847316
0.000847114
0.000846918
0.00085178
0.000851363
0.000850969
0.000850594
0.000850239
0.000849901
0.00084958
0.000849274
0.000848984
0.000848707
0.000848443
0.000848191
0.000847951
0.000847721
0.000847502
0.000847292
0.000847092
0.0008469
0.000851779
0.000851362
0.000850967
0.000850591
0.000850234
0.000849894
0.000849572
0.000849265
0.000848973
0.000848694
0.000848428
0.000848174
0.000847932
0.000847701
0.00084748
0.000847268
0.000847066
0.000846873
0.000851779
0.000851362
0.000850965
0.000850588
0.00085023
0.00084989
0.000849567
0.000849258
0.000848965
0.000848685
0.000848418
0.000848163
0.000847919
0.000847686
0.000847464
0.000847251
0.000847047
0.000846853
0.000851779
0.000851362
0.000850965
0.000850588
0.000850229
0.000849889
0.000849565
0.000849256
0.000848962
0.000848681
0.000848413
0.000848157
0.000847913
0.000847679
0.000847456
0.000847242
0.000847037
0.000846842
0.000851779
0.000851362
0.000850965
0.000850589
0.000850231
0.000849891
0.000849567
0.000849259
0.000848965
0.000848684
0.000848416
0.000848161
0.000847916
0.000847683
0.000847459
0.000847245
0.000847039
0.000846843
0.000851779
0.000851363
0.000850967
0.000850592
0.000850235
0.000849896
0.000849573
0.000849266
0.000848972
0.000848693
0.000848423
0.000848168
0.000847918
0.000847682
0.00084745
0.00084723
0.000847011
0.000846805
0.000851778
0.000851366
0.000850968
0.000850599
0.00085024
0.000849907
0.00084958
0.000849274
0.000848964
0.000848671
0.000848364
0.000848071
0.000847755
0.000847454
0.000847122
0.00084681
0.000846455
0.000846134
0.000851773
0.000851376
0.000850971
0.000850615
0.00085024
0.000849889
0.000849478
0.000849053
0.000848529
0.000847977
0.0008473
0.000846603
0.000845765
0.000844937
0.000843953
0.000843027
0.000841915
0.000840937
0.000851767
0.000851415
0.000850964
0.000850548
0.000849861
0.000848966
0.00084761
0.000845975
0.000843904
0.000841635
0.000838953
0.000836212
0.000833114
0.00083011
0.000826759
0.000823675
0.000820179
0.000817172
0.000851859
0.00085138
0.000850195
0.000848243
0.000844469
0.000839353
0.000832764
0.000825657
0.000817959
0.000810008
0.000801614
0.000793623
0.000785326
0.0007777
0.000769736
0.000762692
0.000755114
0.000748785
0.000852108
0.000847667
0.000839902
0.000827146
0.000808707
0.000789644
0.000769973
0.00075141
0.000733301
0.00071689
0.000700927
0.000686773
0.000672821
0.000660661
0.000648368
0.000637929
0.000626941
0.000618007
0.000843241
0.000822506
0.000775184
0.000726457
0.000684894
0.000649849
0.000618458
0.000592015
0.000568376
0.000548305
0.000529681
0.000513983
0.000498742
0.000486006
0.00047319
0.000462696
0.00045161
0.000442792
0.000795685
0.000668241
0.000570625
0.000509903
0.000465603
0.00043118
0.000404143
0.000382477
0.000364195
0.000349064
0.000335936
0.000325056
0.0003145
0.000306229
0.000297952
0.000291359
0.000284272
0.000278922
0.000501314
0.000348357
0.000292673
0.00025918
0.000236321
0.000221176
0.000211619
0.000203853
0.000198563
0.000195074
0.00019222
0.000190366
0.000188581
0.000187437
0.000186165
0.000185471
0.000184554
0.000184142
7.27385e-05
7.02256e-05
6.79542e-05
6.56138e-05
6.33828e-05
6.12762e-05
5.94944e-05
5.79552e-05
5.67109e-05
5.57033e-05
5.49777e-05
5.44183e-05
5.41098e-05
5.38815e-05
5.38981e-05
5.39333e-05
5.4092e-05
5.43248e-05
1.69657e-07
4.53914e-06
8.46895e-06
1.19278e-05
1.52067e-05
1.88938e-05
2.31534e-05
2.82205e-05
3.42127e-05
4.1109e-05
4.87588e-05
5.69822e-05
6.55832e-05
7.44133e-05
8.33341e-05
9.22609e-05
0.000101109
0.000109832
0.000118377
0.000126701
0.000134743
0.000142404
0.000149579
0.000156068
0.000161725
0.000166305
0.000169693
0.000171546
0.000171911
0.00017122
0.000169746
0.000168466
0.00016959
0.000176706
0.000183888
0.000193385
0.000200183
0.000196647
4.05905e-05
4.4747e-05
4.95226e-05
0.000226452
4.64229e-05
4.95114e-05
5.01655e-05
5.13823e-05
5.2467e-05
5.35946e-05
5.47028e-05
5.58173e-05
5.69239e-05
5.803e-05
5.91314e-05
6.02303e-05
6.13253e-05
6.24173e-05
6.35058e-05
6.4591e-05
6.56726e-05
6.67506e-05
6.78248e-05
6.8895e-05
6.9961e-05
7.10225e-05
7.20792e-05
7.31309e-05
7.4177e-05
7.52173e-05
7.62512e-05
7.72785e-05
7.82985e-05
7.9311e-05
8.03152e-05
8.13108e-05
8.22971e-05
8.32737e-05
8.424e-05
8.51955e-05
8.61395e-05
8.70717e-05
8.79912e-05
8.88977e-05
8.97904e-05
9.0669e-05
9.15324e-05
9.23805e-05
9.32123e-05
9.40274e-05
9.48248e-05
9.5604e-05
9.63639e-05
9.71035e-05
9.78216e-05
9.85172e-05
9.91892e-05
9.98367e-05
0.00010046
0.000101061
0.000101647
0.000102207
0.000102746
0.000103263
0.000103758
0.00010423
0.00010468
0.000105106
0.000105508
0.000105887
0.000106242
0.000106572
0.000106878
0.00010716
0.000107416
0.000107648
0.000107854
0.000108036
0.000108192
0.000108322
0.000108428
0.000108508
0.000108562
0.000108592
0.000108595
0.000108574
0.000108527
0.000108456
0.000108359
0.000108237
0.000108092
0.000107926
0.000107731
0.000107511
0.000107264
0.000106998
0.000106712
0.000106398
0.000106065
0.000105708
0.00010533
0.000104932
0.000104512
0.000104073
0.000103615
0.000103138
0.000102643
0.000102129
0.000101599
0.000101051
0.000100487
9.99074e-05
9.93128e-05
9.87036e-05
9.80806e-05
9.74443e-05
9.67954e-05
9.61345e-05
9.54623e-05
9.47794e-05
9.40867e-05
9.33851e-05
9.26759e-05
9.19626e-05
9.12595e-05
9.07013e-05
9.02876e-05
8.9885e-05
8.94795e-05
8.90703e-05
8.86572e-05
8.82408e-05
8.78209e-05
8.73979e-05
8.69709e-05
8.65392e-05
8.60999e-05
8.56482e-05
8.5173e-05
8.46454e-05
8.40046e-05
8.20842e-05
8.74532e-07
2.44227e-05
5.56258e-05
7.73911e-05
9.12015e-05
0.000100374
0.000107724
0.000114875
0.000122622
0.000131222
0.000140632
0.000150679
0.000161142
0.000171821
0.000182545
0.000193178
0.000203607
0.000213737
0.000223473
0.000232714
0.000241341
0.000249206
0.000256137
0.000261939
0.000266427
0.000269438
0.000270851
0.000269817
0.000266172
0.000260202
0.000252061
0.000242221
0.000232221
0.000244524
0.00025222
0.000239169
0.000244176
0.000231649
0.000215873
0.000232337
0.000256094
0.000287883
0.000259503
0.000270646
0.000276855
0.000284352
0.000292039
0.000299881
0.000307916
0.000316043
0.000324284
0.000332607
0.000341018
0.000349507
0.000358076
0.000366722
0.000375448
0.000384253
0.000393139
0.000402106
0.000411157
0.000420291
0.000429509
0.000438811
0.000448198
0.000457667
0.000467219
0.000476852
0.000486563
0.00049635
0.000506211
0.000516142
0.00052614
0.0005362
0.000546319
0.00055649
0.00056671
0.000576972
0.000587271
0.000597602
0.000607958
0.000618333
0.000628722
0.000639117
0.000649513
0.000659903
0.000670282
0.000680645
0.000690985
0.000701299
0.00071158
0.00072182
0.000732004
0.000742113
0.000752113
0.000761943
0.000771498
0.000780595
0.000788935
0.000797255
0.000805417
0.000813452
0.000821345
0.000829096
0.000836696
0.000844142
0.000851426
0.000858543
0.000865489
0.000872259
0.000878848
0.00088525
0.000891463
0.000897481
0.000903301
0.000908919
0.00091433
0.000919533
0.000924523
0.000929298
0.000933856
0.000938195
0.000942311
0.000946202
0.000949867
0.000953306
0.000956519
0.000959504
0.000962252
0.000964784
0.000967152
0.000969216
0.000970912
0.000972409
0.000973838
0.00097495
0.000975835
0.000976494
0.000976924
0.00097713
0.000977115
0.000976879
0.000976427
0.000975764
0.000974894
0.000973819
0.000972544
0.000971072
0.000969409
0.000967559
0.000965526
0.000963316
0.000960932
0.000958382
0.000955668
0.000952798
0.000949776
0.000946606
0.000943292
0.000939835
0.000936225
0.000932402
0.000928051
0.000921973
0.00091462
0.000906852
0.000898907
0.000890861
0.00088274
0.000874562
0.000866333
0.000858059
0.000849739
0.000841366
0.000832915
0.000824334
0.000815473
0.000806091
0.000794672
0.00076452
1.87455e-06
4.10273e-05
8.93002e-05
0.000125893
0.000152319
0.000171416
0.000185875
0.000197824
0.000208725
0.000219438
0.000230369
0.000241629
0.000253167
0.000264862
0.00027658
0.000288191
0.000299581
0.000310646
0.000321286
0.000331397
0.000340864
0.000349556
0.000357332
0.000364046
0.000369567
0.000373782
0.000376633
0.000378889
0.000381059
0.000383501
0.000386978
0.000392442
0.000402546
0.000416072
0.000425462
0.000431742
0.000440793
0.000447425
0.000457606
0.000478565
0.000499221
0.000516511
0.000524054
0.00054057
0.000556041
0.000571961
0.00058809
0.000604407
0.000620911
0.000637568
0.000654379
0.000671332
0.000688426
0.000705659
0.000723033
0.000740547
0.000758203
0.000776003
0.000793947
0.000812035
0.000830269
0.000848649
0.000867176
0.000885848
0.000904662
0.000923615
0.000942705
0.000961926
0.000981273
0.00100074
0.00102032
0.00104001
0.00105979
0.00107967
0.00109963
0.00111965
0.00113974
0.00115987
0.00118004
0.00120024
0.00122045
0.00124067
0.00126087
0.00128105
0.00130119
0.00132129
0.00134131
0.00136127
0.00138113
0.00140088
0.0014205
0.00143998
0.00145927
0.00147833
0.00149712
0.00151557
0.00153359
0.00155111
0.00156817
0.00158501
0.00160158
0.00161786
0.00163385
0.00164953
0.0016649
0.00167993
0.00169462
0.00170896
0.00172294
0.00173655
0.00174977
0.0017626
0.00177503
0.00178705
0.00179866
0.00180984
0.00182059
0.0018309
0.00184076
0.00185018
0.00185914
0.00186764
0.00187568
0.00188325
0.00189035
0.00189697
0.00190312
0.0019088
0.001914
0.00191874
0.00192312
0.00192694
0.00192999
0.00193263
0.001935
0.00193683
0.00193817
0.00193904
0.00193945
0.00193938
0.00193887
0.0019379
0.00193649
0.00193464
0.00193237
0.00192967
0.00192656
0.00192306
0.00191915
0.00191486
0.0019102
0.00190517
0.00189979
0.00189407
0.00188801
0.00188163
0.00187494
0.00186795
0.00186067
0.0018531
0.00184522
0.00183695
0.00182795
0.00181732
0.00180525
0.00179246
0.00177927
0.00176583
0.00175218
0.00173838
0.00172444
0.00171038
0.0016962
0.00168189
0.00166739
0.0016526
0.00163726
0.00162063
0.00159991
0.00155562
3.03008e-06
5.38937e-05
0.000115315
0.000163092
0.000198215
0.000224193
0.000244081
0.000260248
0.000274387
0.000287595
0.000300496
0.00031338
0.000326326
0.000339305
0.000352237
0.000365033
0.000377612
0.000389904
0.00040185
0.0004134
0.000424506
0.000435125
0.000445221
0.000454782
0.000463846
0.000472528
0.00048108
0.000489939
0.000499587
0.000510525
0.000523282
0.000538228
0.000555281
0.000573976
0.00059203
0.000609777
0.000627629
0.000645358
0.000665241
0.000687736
0.000710114
0.000731444
0.000752177
0.000774645
0.000797215
0.000820004
0.000842986
0.000866159
0.000889525
0.000913077
0.000936814
0.000960735
0.00098484
0.00100913
0.0010336
0.00105826
0.00108312
0.00110816
0.0011334
0.00115884
0.00118446
0.00121028
0.00123629
0.00126248
0.00128885
0.0013154
0.00134212
0.001369
0.00139604
0.00142322
0.00145053
0.00147797
0.00150552
0.00153317
0.0015609
0.0015887
0.00161657
0.00164447
0.0016724
0.00170033
0.00172826
0.00175617
0.00178403
0.00181182
0.00183954
0.00186716
0.00189466
0.00192202
0.00194921
0.00197622
0.00200301
0.00202956
0.00205583
0.00208177
0.00210735
0.00213251
0.0021572
0.00218141
0.00220521
0.00222865
0.00225171
0.00227438
0.00229663
0.00231846
0.00233984
0.00236076
0.0023812
0.00240115
0.0024206
0.00243952
0.00245792
0.00247577
0.00249306
0.00250979
0.00252593
0.00254149
0.00255645
0.0025708
0.00258453
0.00259764
0.00261012
0.00262196
0.00263316
0.0026437
0.0026536
0.00266284
0.00267142
0.00267934
0.00268661
0.0026933
0.00269949
0.00270473
0.00270904
0.00271289
0.00271619
0.00271881
0.00272075
0.00272204
0.00272268
0.00272268
0.00272205
0.00272079
0.00271892
0.00271645
0.00271339
0.00270974
0.00270552
0.00270073
0.0026954
0.00268954
0.00268315
0.00267625
0.00266885
0.00266098
0.00265264
0.00264384
0.00263461
0.00262496
0.00261489
0.00260442
0.00259353
0.00258214
0.00257
0.00255657
0.00254189
0.00252639
0.00251035
0.00249391
0.00247718
0.0024602
0.00244301
0.00242563
0.00240807
0.00239033
0.0023724
0.00235417
0.00233527
0.00231477
0.00228936
0.00224286
4.19904e-06
6.47283e-05
0.000137152
0.000194216
0.000236975
0.000269002
0.000293663
0.00031357
0.000330621
0.000346108
0.000360837
0.000375251
0.00038956
0.000403828
0.000418049
0.000432191
0.000446221
0.00046012
0.000473885
0.000487528
0.000501075
0.000514558
0.000528025
0.000541533
0.000555174
0.000569083
0.000583467
0.000598612
0.000614864
0.000632609
0.000652222
0.000673967
0.000696733
0.000720307
0.000743912
0.000767334
0.000790588
0.000814822
0.000840251
0.000866749
0.00089365
0.000920775
0.000947824
0.000975392
0.00100321
0.00103125
0.00105951
0.00108797
0.00111665
0.00114555
0.00117466
0.00120398
0.00123352
0.00126328
0.00129324
0.00132342
0.00135383
0.00138446
0.00141531
0.00144639
0.00147769
0.0015092
0.00154092
0.00157285
0.00160497
0.00163729
0.00166978
0.00170245
0.00173527
0.00176825
0.00180135
0.00183458
0.00186791
0.00190133
0.00193483
0.00196838
0.00200196
0.00203557
0.00206917
0.00210276
0.0021363
0.00216978
0.00220318
0.00223647
0.00226964
0.00230266
0.0023355
0.00236815
0.00240057
0.00243274
0.00246464
0.00249622
0.00252746
0.00255833
0.0025888
0.00261883
0.00264844
0.00267759
0.0027063
0.00273457
0.00276238
0.00278973
0.00281658
0.00284291
0.00286872
0.00289398
0.00291868
0.00294279
0.0029663
0.0029892
0.00301146
0.00303309
0.00305405
0.00307434
0.00309394
0.00311285
0.00313105
0.00314853
0.00316528
0.0031813
0.00319657
0.00321108
0.00322483
0.00323781
0.00325002
0.00326146
0.00327212
0.003282
0.00329112
0.00329966
0.00330736
0.00331403
0.00331966
0.00332484
0.00332922
0.00333282
0.00333562
0.00333765
0.00333891
0.00333942
0.00333917
0.00333818
0.00333646
0.00333402
0.00333087
0.00332702
0.00332249
0.00331729
0.00331143
0.00330492
0.00329778
0.00329003
0.00328168
0.00327275
0.00326325
0.00325319
0.00324261
0.00323151
0.0032199
0.0032078
0.0031952
0.00318204
0.00316816
0.00315326
0.00313734
0.0031206
0.00310325
0.00308542
0.00306721
0.00304868
0.00302987
0.00301081
0.00299153
0.00297204
0.00295232
0.00293224
0.00291151
0.00288913
0.00286191
0.0028178
5.31761e-06
7.38563e-05
0.000155553
0.00022063
0.000270221
0.000307774
0.000336859
0.000360276
0.000380098
0.000397786
0.000414306
0.00043025
0.000445951
0.000461574
0.000477191
0.000492833
0.000508517
0.000524269
0.000540129
0.000556153
0.000572412
0.000588982
0.000605948
0.000623391
0.000641399
0.000660069
0.000679515
0.000699876
0.000721313
0.00074399
0.000768034
0.000793455
0.000819931
0.000847174
0.000874854
0.000902813
0.000931089
0.000959952
0.00098953
0.00101977
0.00105047
0.0010815
0.00111281
0.00114444
0.00117634
0.00120848
0.00124084
0.00127344
0.00130626
0.00133931
0.00137259
0.0014061
0.00143984
0.00147382
0.00150804
0.0015425
0.00157718
0.00161209
0.00164722
0.00168257
0.00171813
0.0017539
0.00178987
0.00182605
0.0018624
0.00189894
0.00193565
0.00197251
0.00200952
0.00204665
0.00208391
0.00212127
0.00215871
0.00219623
0.00223379
0.0022714
0.00230901
0.00234662
0.00238421
0.00242176
0.00245924
0.00249663
0.00253391
0.00257106
0.00260805
0.00264487
0.00268149
0.00271787
0.002754
0.00278985
0.0028254
0.00286061
0.00289546
0.00292991
0.00296396
0.00299757
0.00303074
0.00306344
0.00309567
0.00312741
0.00315866
0.00318938
0.00321957
0.00324919
0.00327823
0.00330668
0.0033345
0.00336168
0.00338821
0.00341407
0.00343923
0.00346369
0.00348743
0.00351044
0.00353269
0.00355418
0.00357489
0.00359482
0.00361395
0.00363227
0.00364977
0.00366645
0.00368229
0.00369728
0.00371143
0.00372472
0.00373716
0.00374875
0.00375958
0.00376974
0.00377881
0.00378684
0.00379388
0.00380032
0.00380588
0.00381057
0.00381439
0.00381735
0.00381948
0.00382076
0.00382122
0.00382086
0.00381969
0.00381773
0.00381498
0.00381146
0.00380717
0.00380214
0.00379638
0.0037899
0.00378271
0.00377484
0.00376629
0.00375709
0.00374724
0.00373678
0.00372571
0.00371406
0.00370183
0.00368905
0.00367571
0.00366177
0.00364714
0.00363167
0.00361533
0.00359821
0.00358047
0.0035622
0.00354348
0.00352438
0.00350496
0.00348525
0.0034653
0.00344512
0.00342472
0.00340402
0.00338275
0.00336001
0.00333297
0.00329297
6.34423e-06
8.14157e-05
0.000170856
0.000242892
0.000298634
0.000341302
0.000374581
0.000401395
0.000423955
0.000443861
0.000462219
0.000479755
0.000496919
0.000513975
0.000531075
0.000548306
0.000565734
0.000583415
0.000601415
0.000619809
0.000638681
0.00065812
0.000678212
0.000699038
0.000720665
0.000743151
0.000766544
0.000790892
0.00081624
0.000842629
0.000870078
0.000898557
0.000927945
0.000958086
0.000988824
0.00102006
0.00105176
0.00108397
0.00111673
0.00115
0.0011837
0.00121777
0.00125216
0.00128686
0.00132183
0.00135705
0.00139251
0.0014282
0.00146412
0.00150027
0.00153664
0.00157324
0.00161007
0.00164713
0.00168441
0.00172192
0.00175964
0.00179758
0.00183573
0.00187409
0.00191265
0.00195141
0.00199035
0.00202948
0.00206878
0.00210824
0.00214786
0.00218762
0.00222751
0.00226752
0.00230763
0.00234783
0.0023881
0.00242842
0.00246878
0.00250916
0.00254955
0.00258992
0.00263024
0.00267052
0.00271071
0.0027508
0.00279077
0.0028306
0.00287026
0.00290973
0.00294898
0.002988
0.00302675
0.00306521
0.00310335
0.00314115
0.00317859
0.00321564
0.00325228
0.00328848
0.00332423
0.00335952
0.00339432
0.00342861
0.00346239
0.00349562
0.00352829
0.00356037
0.00359185
0.0036227
0.0036529
0.00368243
0.00371128
0.00373942
0.00376684
0.00379352
0.00381944
0.00384459
0.00386896
0.00389252
0.00391527
0.00393719
0.00395827
0.0039785
0.00399787
0.00401636
0.00403397
0.0040507
0.00406653
0.00408145
0.00409548
0.00410861
0.00412104
0.00413251
0.00414299
0.00415233
0.0041608
0.00416849
0.00417525
0.00418109
0.00418601
0.00419004
0.00419317
0.00419541
0.00419678
0.00419729
0.00419693
0.00419573
0.0041937
0.00419084
0.00418718
0.00418271
0.00417747
0.00417146
0.00416469
0.00415719
0.00414896
0.00414003
0.00413041
0.00412012
0.00410917
0.00409759
0.00408539
0.00407258
0.00405917
0.00404514
0.00403044
0.004015
0.00399879
0.00398185
0.00396428
0.00394616
0.00392755
0.00390853
0.00388914
0.00386944
0.00384947
0.00382929
0.00380892
0.00378833
0.0037673
0.00374507
0.00371924
0.00368338
7.24958e-06
8.75204e-05
0.000183317
0.00026135
0.0003226
0.000370003
0.000407272
0.000437403
0.000462699
0.000484869
0.000505135
0.000524338
0.000543033
0.000561576
0.000580193
0.000599026
0.000618178
0.000637733
0.000657763
0.000678344
0.000699556
0.000721477
0.000744182
0.000767738
0.000792215
0.000817624
0.000843975
0.000871268
0.000899497
0.000928646
0.000958693
0.000989596
0.00102129
0.00105369
0.00108672
0.0011203
0.00115439
0.00118897
0.00122402
0.00125952
0.00129542
0.00133168
0.00136828
0.00140517
0.00144233
0.00147976
0.00151741
0.00155529
0.00159338
0.00163169
0.0016702
0.00170893
0.00174786
0.00178701
0.00182635
0.0018659
0.00190565
0.00194559
0.00198572
0.00202604
0.00206654
0.00210722
0.00214808
0.00218909
0.00223027
0.00227159
0.00231305
0.00235464
0.00239635
0.00243817
0.00248008
0.00252207
0.00256412
0.00260623
0.00264837
0.00269053
0.00273269
0.00277484
0.00281694
0.002859
0.00290098
0.00294286
0.00298463
0.00302626
0.00306773
0.00310902
0.0031501
0.00319095
0.00323154
0.00327186
0.00331187
0.00335155
0.00339089
0.00342985
0.00346841
0.00350655
0.00354424
0.00358148
0.00361823
0.00365448
0.00369021
0.00372538
0.00375999
0.00379401
0.00382741
0.00386017
0.00389228
0.0039237
0.00395443
0.00398444
0.00401371
0.00404223
0.00406997
0.00409692
0.00412306
0.00414838
0.00417287
0.0041965
0.00421926
0.00424115
0.00426216
0.00428226
0.00430145
0.00431973
0.00433708
0.0043535
0.00436897
0.00438359
0.00439743
0.00441019
0.00442202
0.00443269
0.00444254
0.00445148
0.00445946
0.00446649
0.00447258
0.00447774
0.00448198
0.0044853
0.00448771
0.00448922
0.00448985
0.00448961
0.0044885
0.00448653
0.00448373
0.0044801
0.00447566
0.00447042
0.00446439
0.00445759
0.00445004
0.00444175
0.00443273
0.00442301
0.0044126
0.00440152
0.00438979
0.00437741
0.0043644
0.00435076
0.00433646
0.00432146
0.00430576
0.00428937
0.00427235
0.00425476
0.00423667
0.00421813
0.0041992
0.00417993
0.0041604
0.00414066
0.00412077
0.00410073
0.00408041
0.00405916
0.00403507
0.00400378
8.01631e-06
9.22853e-05
0.000193163
0.000276289
0.000342413
0.000394163
0.000435206
0.000468557
0.000496574
0.00052104
0.000543269
0.000564193
0.00058446
0.000604507
0.000624618
0.000644988
0.000665759
0.000687066
0.000708946
0.000731462
0.000754677
0.000778647
0.000803418
0.000829011
0.0008555
0.00088293
0.000911301
0.000940597
0.000970791
0.00100185
0.00103373
0.0010664
0.0010998
0.00113387
0.00116856
0.00120381
0.00123957
0.00127582
0.00131251
0.0013496
0.00138705
0.00142474
0.00146271
0.00150098
0.00153954
0.00157835
0.00161738
0.0016566
0.001696
0.0017356
0.00177537
0.00181533
0.00185546
0.00189577
0.00193626
0.00197693
0.00201777
0.00205878
0.00209996
0.0021413
0.00218281
0.00222449
0.00226632
0.0023083
0.00235043
0.0023927
0.00243511
0.00247764
0.00252029
0.00256305
0.00260591
0.00264886
0.00269189
0.00273498
0.00277812
0.00282129
0.00286448
0.00290768
0.00295087
0.00299402
0.00303712
0.00308015
0.00312309
0.00316592
0.00320862
0.00325116
0.00329353
0.00333569
0.00337762
0.00341931
0.00346072
0.00350183
0.00354261
0.00358305
0.00362311
0.00366278
0.00370203
0.00374083
0.00377916
0.003817
0.00385433
0.00389112
0.00392734
0.00396298
0.00399801
0.0040324
0.00406614
0.00409919
0.00413155
0.00416319
0.00419408
0.00422421
0.00425356
0.0042821
0.00430984
0.00433673
0.00436278
0.00438797
0.00441227
0.00443569
0.0044582
0.00447979
0.00450046
0.00452019
0.00453897
0.00455681
0.00457368
0.00458974
0.00460483
0.00461893
0.00463206
0.0046441
0.0046553
0.00466551
0.00467474
0.004683
0.0046903
0.00469665
0.00470206
0.00470653
0.00471008
0.00471272
0.00471445
0.00471529
0.00471525
0.00471434
0.00471257
0.00470996
0.00470651
0.00470225
0.00469718
0.00469133
0.00468469
0.0046773
0.00466917
0.0046603
0.00465073
0.00464046
0.0046295
0.00461789
0.00460562
0.0045927
0.00457913
0.00456488
0.00454996
0.00453439
0.00451818
0.0045014
0.0044841
0.00446632
0.00444814
0.00442961
0.00441081
0.0043918
0.00437268
0.00435349
0.00433413
0.00431411
0.00429192
0.00426502
8.6351e-06
9.58207e-05
0.000200595
0.000288045
0.000358323
0.000414027
0.000458601
0.000495043
0.000525727
0.000552487
0.000576696
0.00059936
0.000621204
0.000642757
0.000664312
0.000686066
0.000708133
0.000730592
0.00075366
0.000777436
0.000801985
0.000827357
0.000853595
0.000880749
0.000908834
0.000937853
0.00096777
0.000998553
0.00103017
0.00106257
0.00109573
0.00112959
0.00116411
0.00119924
0.00123492
0.00127113
0.0013078
0.0013449
0.0013824
0.00142026
0.00145846
0.00149701
0.00153585
0.00157494
0.00161418
0.00165362
0.00169323
0.00173298
0.00177287
0.0018129
0.00185307
0.00189338
0.00193384
0.00197445
0.00201521
0.00205611
0.00209717
0.00213837
0.00217973
0.00222125
0.00226292
0.00230475
0.00234674
0.00238888
0.00243117
0.00247362
0.00251621
0.00255895
0.00260184
0.00264485
0.00268799
0.00273125
0.00277462
0.00281809
0.00286165
0.00290529
0.00294898
0.00299272
0.0030365
0.00308028
0.00312407
0.00316782
0.00321154
0.00325519
0.00329875
0.0033422
0.00338552
0.00342868
0.00347166
0.00351442
0.00355696
0.00359923
0.00364122
0.0036829
0.00372423
0.0037652
0.00380578
0.00384594
0.00388565
0.00392489
0.00396364
0.00400186
0.00403954
0.00407664
0.00411314
0.00414901
0.00418424
0.00421879
0.00425265
0.00428579
0.00431818
0.00434982
0.00438067
0.00441072
0.00443995
0.00446834
0.00449587
0.00452253
0.00454831
0.00457318
0.00459714
0.00462017
0.00464226
0.00466341
0.0046836
0.00470282
0.0047211
0.00473848
0.00475486
0.0047703
0.00478475
0.0047982
0.00481074
0.00482225
0.00483275
0.00484228
0.00485084
0.00485843
0.00486508
0.00487078
0.00487555
0.0048794
0.00488233
0.00488436
0.0048855
0.00488576
0.00488516
0.0048837
0.00488141
0.00487828
0.00487435
0.00486961
0.00486409
0.0048578
0.00485075
0.00484295
0.00483443
0.0048252
0.00481528
0.00480467
0.00479339
0.00478145
0.00476886
0.0047556
0.00474169
0.00472712
0.00471194
0.00469617
0.00467987
0.00466307
0.00464585
0.00462827
0.0046104
0.00459235
0.00457419
0.00455601
0.00453777
0.00451908
0.00449877
0.00447547
9.10501e-06
9.82555e-05
0.000205859
0.00029685
0.000370634
0.000429856
0.000477681
0.000517037
0.000550286
0.000579283
0.000605472
0.000629819
0.000653024
0.000675523
0.00069791
0.000720512
0.000743562
0.000767267
0.000791681
0.000816819
0.000842719
0.000869421
0.000896953
0.000925335
0.00095455
0.000984564
0.00101538
0.00104696
0.0010793
0.00111235
0.00114608
0.00118043
0.00121537
0.00125085
0.00128684
0.00132327
0.00136013
0.00139735
0.00143493
0.00147281
0.00151097
0.00154939
0.00158802
0.00162685
0.00166595
0.00170527
0.00174469
0.00178415
0.00182366
0.00186326
0.00190296
0.00194276
0.00198267
0.0020227
0.00206286
0.00210316
0.00214359
0.00218417
0.00222491
0.00226581
0.00230688
0.00234812
0.00238955
0.00243115
0.00247295
0.00251493
0.00255711
0.00259948
0.00264204
0.00268479
0.00272772
0.00277083
0.00281411
0.00285755
0.00290115
0.00294488
0.00298875
0.00303273
0.0030768
0.00312096
0.00316518
0.00320943
0.00325371
0.00329798
0.00334223
0.00338643
0.00343054
0.00347456
0.00351845
0.00356218
0.00360572
0.00364905
0.00369213
0.00373495
0.00377746
0.00381964
0.00386147
0.0039029
0.00394391
0.00398448
0.00402458
0.00406417
0.00410323
0.00414173
0.00417965
0.00421695
0.00425362
0.00428962
0.00432493
0.00435952
0.00439338
0.00442648
0.0044588
0.00449032
0.00452101
0.00455087
0.00457986
0.00460798
0.0046352
0.00466152
0.00468692
0.00471138
0.0047349
0.00475745
0.00477905
0.00479967
0.00481933
0.00483803
0.00485576
0.00487256
0.00488839
0.00490322
0.00491718
0.00493001
0.00494183
0.00495267
0.00496254
0.00497144
0.00497939
0.00498639
0.00499245
0.00499759
0.00500181
0.00500513
0.00500755
0.0050091
0.00500977
0.0050096
0.00500858
0.00500673
0.00500407
0.0050006
0.00499634
0.00499131
0.00498552
0.00497897
0.0049717
0.0049637
0.00495499
0.00494559
0.00493551
0.00492476
0.00491335
0.00490128
0.00488855
0.00487519
0.0048612
0.00484662
0.00483148
0.00481584
0.00479976
0.00478329
0.00476654
0.00474958
0.00473253
0.00471549
0.00469845
0.00468113
0.00466262
0.00464233
9.43216e-06
9.97294e-05
0.000209196
0.000302933
0.000379629
0.000441919
0.000492674
0.000534744
0.000570366
0.000601278
0.000628821
0.000654275
0.000678543
0.00070236
0.000726092
0.000749989
0.000774253
0.000799013
0.000824316
0.000850264
0.000876915
0.000904303
0.000932447
0.00096135
0.000991004
0.00102139
0.00105248
0.00108424
0.00111665
0.00114967
0.00118328
0.00121742
0.00125207
0.00128717
0.00132269
0.00135859
0.00139482
0.00143136
0.00146817
0.00150523
0.00154248
0.00157988
0.00161749
0.00165539
0.00169358
0.00173182
0.00177009
0.00180839
0.00184663
0.00188489
0.0019232
0.00196159
0.00200007
0.00203867
0.00207739