/*--------------------------------*- C++ -*----------------------------------*\
  =========                 |
  \\      /  F ield         | OpenFOAM: The Open Source CFD Toolbox
   \\    /   O peration     | Website:  https://openfoam.org
    \\  /    A nd           | Version:  7
     \\/     M anipulation  |
\*---------------------------------------------------------------------------*/
FoamFile
{
    version     2.0;
    format      ascii;
    class       volScalarField;
    location    "288";
    object      p;
}
// * * * * * * * * * * * * * * * * * * * * * * * * * * * * * * * * * * * * * //

dimensions      [0 2 -2 0 0 0 0];

internalField   nonuniform List<scalar> 
12225
(
-1.30728
-3.4959
-4.59601
-4.91682
-5.09831
-5.26763
-5.39953
-5.49518
-5.57243
-5.64063
-5.70165
-5.75786
-5.8094
-5.85818
-5.90472
-5.94557
-5.99677
-5.98044
-4.47071
-5.2392
-5.39976
-5.30767
-5.29535
-5.36349
-5.44141
-5.50764
-5.56789
-5.62612
-5.68175
-5.73396
-5.78354
-5.8309
-5.87715
-5.91943
-5.96804
-6.00634
-4.87184
-4.85688
-4.98433
-5.06285
-5.15795
-5.27839
-5.386
-5.47131
-5.54374
-5.60987
-5.67096
-5.72713
-5.7799
-5.82972
-5.87819
-5.92345
-5.97433
-6.01968
-4.7499
-4.69303
-4.93473
-5.09319
-5.19513
-5.30159
-5.39965
-5.48014
-5.54948
-5.6133
-5.6728
-5.728
-5.7801
-5.82955
-5.87776
-5.92404
-5.97355
-6.02182
-4.73955
-4.76403
-4.99218
-5.13388
-5.21769
-5.30999
-5.40156
-5.47971
-5.54781
-5.61073
-5.66971
-5.72477
-5.77689
-5.82659
-5.87506
-5.92227
-5.97116
-6.02072
-4.79749
-4.84647
-5.02084
-5.14488
-5.22657
-5.31464
-5.40301
-5.47992
-5.54741
-5.60976
-5.66833
-5.72322
-5.77524
-5.825
-5.87347
-5.92094
-5.96914
-6.01812
-4.85779
-4.90208
-5.03734
-5.15379
-5.23771
-5.32207
-5.40629
-5.4813
-5.54786
-5.60944
-5.6674
-5.72195
-5.77373
-5.82335
-5.8716
-5.9189
-5.96627
-6.01386
-4.91128
-4.94896
-5.05901
-5.16741
-5.25056
-5.33037
-5.41005
-5.48287
-5.54833
-5.60905
-5.66632
-5.72042
-5.77185
-5.8212
-5.86908
-5.91591
-5.96227
-6.00822
-4.96096
-4.99413
-5.08512
-5.18318
-5.26339
-5.33894
-5.41434
-5.48475
-5.54892
-5.60863
-5.66508
-5.71859
-5.76955
-5.81846
-5.8658
-5.9119
-5.95713
-6.00136
-5.00794
-5.03722
-5.1128
-5.2001
-5.27642
-5.34812
-5.41943
-5.48717
-5.54977
-5.60831
-5.66378
-5.71654
-5.76687
-5.81515
-5.86177
-5.90697
-5.95095
-5.9935
-5.05217
-5.07768
-5.14093
-5.21817
-5.28995
-5.35789
-5.42528
-5.49016
-5.55095
-5.60815
-5.66251
-5.71435
-5.76388
-5.81137
-5.85711
-5.90126
-5.94395
-5.98489
-5.09009
-5.11245
-5.16669
-5.23557
-5.30276
-5.36725
-5.43119
-5.49338
-5.55235
-5.60818
-5.6614
-5.71225
-5.7609
-5.80755
-5.85237
-5.89548
-5.93695
-5.9765
-5.12509
-5.14482
-5.19168
-5.2531
-5.31565
-5.37671
-5.4374
-5.49691
-5.55397
-5.60835
-5.66033
-5.71012
-5.75781
-5.80351
-5.84735
-5.88939
-5.92967
-5.96793
-5.16174
-5.17894
-5.21897
-5.27301
-5.33036
-5.38756
-5.44472
-5.50124
-5.55604
-5.60866
-5.65915
-5.70761
-5.7541
-5.79864
-5.8413
-5.88209
-5.92105
-5.95794
-5.19877
-5.21356
-5.24756
-5.29466
-5.34654
-5.39953
-5.45298
-5.50628
-5.55849
-5.60904
-5.65776
-5.70465
-5.74968
-5.79284
-5.83413
-5.87353
-5.91105
-5.94655
-5.23421
-5.24684
-5.27577
-5.31671
-5.36325
-5.41193
-5.46162
-5.51162
-5.56105
-5.60928
-5.65601
-5.7011
-5.74447
-5.78605
-5.82581
-5.86371
-5.89976
-5.93385
-5.26515
-5.27602
-5.30096
-5.33688
-5.37871
-5.42337
-5.46954
-5.51636
-5.56303
-5.60888
-5.6535
-5.69668
-5.73827
-5.77818
-5.81634
-5.85271
-5.88729
-5.92002
-5.28723
-5.29688
-5.31911
-5.35153
-5.38991
-5.43146
-5.4748
-5.51901
-5.5633
-5.607
-5.64967
-5.69103
-5.73092
-5.76921
-5.80584
-5.84075
-5.87395
-5.90542
-5.29357
-5.30271
-5.3239
-5.35498
-5.392
-5.43217
-5.47408
-5.51686
-5.55974
-5.60204
-5.64334
-5.68334
-5.72189
-5.75888
-5.79426
-5.82798
-5.86005
-5.8905
-5.27708
-5.28684
-5.3094
-5.34241
-5.38132
-5.42289
-5.46571
-5.50906
-5.55223
-5.59459
-5.6357
-5.67535
-5.71344
-5.74989
-5.78466
-5.81776
-5.84921
-5.87905
-5.24999
-5.26077
-5.28599
-5.32294
-5.36562
-5.41001
-5.45495
-5.50001
-5.54445
-5.58759
-5.62914
-5.669
-5.70713
-5.74349
-5.77807
-5.81093
-5.8421
-5.87167
-5.2146
-5.2264
-5.25571
-5.29922
-5.3474
-5.39526
-5.44292
-5.49048
-5.53684
-5.58123
-5.62354
-5.66388
-5.70227
-5.73872
-5.77327
-5.80603
-5.83705
-5.86645
-5.17393
-5.18581
-5.22022
-5.27341
-5.32886
-5.38069
-5.43143
-5.48171
-5.53004
-5.57573
-5.61895
-5.65993
-5.69871
-5.73536
-5.76999
-5.80274
-5.83371
-5.86304
-5.13014
-5.1411
-5.18283
-5.24717
-5.30925
-5.3658
-5.42128
-5.47498
-5.52506
-5.5717
-5.61562
-5.65711
-5.69617
-5.73293
-5.76758
-5.80029
-5.83119
-5.86042
-5.08316
-5.08864
-5.15126
-5.22939
-5.29123
-5.34935
-5.41035
-5.46855
-5.5209
-5.56877
-5.6136
-5.65567
-5.69502
-5.73187
-5.7665
-5.79915
-5.82998
-5.85918
-5.03981
-5.00346
-5.11296
-5.22385
-5.286
-5.34116
-5.40323
-5.46281
-5.51586
-5.5644
-5.60994
-5.65255
-5.69224
-5.72929
-5.76403
-5.79674
-5.8276
-5.85681
-5.05401
-4.89504
-5.02392
-5.17792
-5.26793
-5.33917
-5.40795
-5.46871
-5.52134
-5.56944
-5.61455
-5.65663
-5.69573
-5.73222
-5.76642
-5.79863
-5.82909
-5.85803
-5.17719
-4.99679
-5.01092
-5.08297
-5.17125
-5.27034
-5.36089
-5.43451
-5.49605
-5.55101
-5.60115
-5.64674
-5.68837
-5.72668
-5.7622
-5.79538
-5.82666
-5.85669
-4.88456
-5.47563
-5.56442
-5.44009
-5.38566
-5.41269
-5.45953
-5.50262
-5.54401
-5.58602
-5.62734
-5.6665
-5.70328
-5.73783
-5.77023
-5.80062
-5.82922
-5.85782
-1.89523
-3.65852
-4.66316
-4.96223
-5.11131
-5.25481
-5.36871
-5.44951
-5.51358
-5.57027
-5.62136
-5.66722
-5.70872
-5.74678
-5.78191
-5.8139
-5.8426
-5.86627
-6.72527
-6.7253
-6.72566
-6.72641
-6.72739
-6.72852
-6.72983
-6.73133
-6.73306
-6.73506
-6.7374
-6.7401
-6.74322
-6.74679
-6.75087
-6.7555
-6.7607
-6.76654
-6.77305
-6.78027
-6.78826
-6.79708
-6.80681
-6.81752
-6.8293
-6.84214
-6.85604
-6.87092
-6.88659
-6.90268
-6.91907
-6.93623
-6.9541
-6.97249
-6.99357
-7.01807
-7.04453
-7.07241
-7.1025
-7.13376
-7.16089
-7.18371
-7.2049
-7.22852
-7.25546
-7.28332
-7.31212
-7.34149
-7.37126
-7.40128
-7.43143
-7.4616
-7.49169
-7.5216
-7.55122
-7.58046
-7.60922
-7.63739
-7.66485
-7.6915
-7.71722
-7.74187
-7.76533
-7.78746
-7.80812
-7.82715
-7.84441
-7.85972
-7.87292
-7.88385
-7.89232
-7.89815
-7.90115
-7.90114
-7.89793
-7.89132
-7.88111
-7.86712
-7.84912
-7.82695
-7.8004
-7.76927
-7.73336
-7.69251
-7.64652
-7.59521
-7.53841
-7.47595
-7.40765
-7.33337
-7.25299
-7.16639
-7.07341
-6.97393
-6.8679
-6.7554
-6.63654
-6.51113
-6.37857
-6.23872
-6.09184
-5.93799
-5.7772
-5.60951
-5.43493
-5.25353
-5.06535
-4.87047
-4.66899
-4.46101
-4.24665
-4.02605
-3.79935
-3.56674
-3.32836
-3.08444
-2.83515
-2.58073
-2.32139
-2.05738
-1.78897
-1.51642
-1.23998
-0.959928
-0.676548
-0.390141
-0.101008
0.190536
0.484191
0.779656
1.07662
1.37474
1.67366
1.97309
2.27271
2.57221
2.87128
3.16958
3.46681
3.76266
4.05685
4.34908
4.6391
4.92661
5.21138
5.49315
5.7717
6.04678
6.3182
6.58574
6.84922
7.10847
7.36331
7.6136
7.85919
8.09996
8.3358
8.5666
8.79229
9.01278
9.22801
9.43795
9.64265
9.84215
10.0362
10.2246
10.4073
10.5843
10.7558
10.9217
11.082
11.2368
11.3861
11.53
11.6688
11.8028
11.9334
12.062
12.2002
12.3448
-6.72421
-6.72448
-6.72497
-6.72565
-6.72631
-6.7269
-6.72752
-6.72832
-6.7294
-6.73082
-6.73262
-6.73483
-6.73747
-6.74056
-6.74415
-6.74826
-6.75292
-6.75818
-6.76407
-6.77065
-6.77795
-6.78602
-6.79493
-6.80468
-6.81531
-6.82676
-6.83896
-6.85174
-6.86497
-6.87883
-6.89393
-6.9105
-6.92839
-6.94898
-6.97112
-6.99264
-7.01394
-7.03578
-7.05683
-7.07722
-7.10197
-7.13294
-7.16792
-7.20185
-7.2321
-7.26191
-7.29163
-7.32144
-7.35136
-7.38137
-7.41142
-7.44144
-7.47134
-7.50106
-7.53049
-7.55955
-7.58815
-7.61617
-7.64352
-7.67008
-7.69574
-7.72037
-7.74384
-7.76601
-7.78675
-7.80591
-7.82333
-7.83885
-7.85231
-7.86353
-7.87234
-7.87856
-7.882
-7.88247
-7.87979
-7.87377
-7.8642
-7.85089
-7.83363
-7.81225
-7.78654
-7.7563
-7.72134
-7.68149
-7.63655
-7.58636
-7.53072
-7.46948
-7.40247
-7.32955
-7.25059
-7.16547
-7.07404
-6.97619
-6.8718
-6.76073
-6.64278
-6.51782
-6.38606
-6.24762
-6.10232
-5.95012
-5.79102
-5.62503
-5.45216
-5.27247
-5.08601
-4.89284
-4.69307
-4.48679
-4.27412
-4.05519
-3.83015
-3.59916
-3.3624
-3.12005
-2.87231
-2.61939
-2.36152
-2.09895
-1.83193
-1.5607
-1.28555
-1.00672
-0.724518
-0.439226
-0.15115
0.1394
0.432122
0.726723
1.02289
1.32029
1.61856
1.9174
2.21652
2.51559
2.81429
3.11231
3.40933
3.70506
3.99919
4.29144
4.58154
4.86922
5.15423
5.4363
5.71521
5.99074
6.26265
6.53076
6.79487
7.05479
7.31037
7.56145
7.80789
8.04955
8.28633
8.51812
8.74483
8.96641
9.18281
9.39399
9.59971
9.79968
9.99393
10.1826
10.3657
10.5431
10.715
10.8814
11.0422
11.1975
11.3474
11.4921
11.6317
11.7669
11.8992
12.0296
12.1707
12.31
-6.72052
-6.72142
-6.7227
-6.72381
-6.72451
-6.72495
-6.72534
-6.72588
-6.72668
-6.72783
-6.72938
-6.73136
-6.73379
-6.7367
-6.74012
-6.74407
-6.74859
-6.75371
-6.75947
-6.76592
-6.77307
-6.78099
-6.78968
-6.79918
-6.80947
-6.82054
-6.83238
-6.84499
-6.85845
-6.87295
-6.88881
-6.90621
-6.92521
-6.94611
-6.96842
-6.99121
-7.01402
-7.03671
-7.05905
-7.08121
-7.10484
-7.13101
-7.15926
-7.18832
-7.21719
-7.24625
-7.27545
-7.30479
-7.33422
-7.36373
-7.39325
-7.42274
-7.45211
-7.48131
-7.51025
-7.53883
-7.56698
-7.59459
-7.62156
-7.64778
-7.67313
-7.6975
-7.72075
-7.74275
-7.76337
-7.78245
-7.79984
-7.81538
-7.82892
-7.84027
-7.84927
-7.85573
-7.85948
-7.86032
-7.85807
-7.85253
-7.84351
-7.83082
-7.81425
-7.79362
-7.76872
-7.73937
-7.70537
-7.66653
-7.62268
-7.57363
-7.51921
-7.45925
-7.39357
-7.32205
-7.24454
-7.16091
-7.07103
-6.97479
-6.87209
-6.7628
-6.64674
-6.52376
-6.39395
-6.25738
-6.114
-5.96376
-5.80665
-5.64268
-5.47186
-5.29423
-5.10984
-4.91876
-4.72108
-4.51688
-4.3063
-4.08945
-3.86649
-3.63755
-3.40283
-3.16249
-2.91674
-2.66578
-2.40984
-2.14916
-1.88399
-1.61457
-1.34116
-1.06404
-0.78349
-0.49979
-0.213249
0.075828
0.367138
0.660396
0.955289
1.25148
1.54862
1.84642
2.14456
2.44273
2.74062
3.0379
3.33426
3.6294
3.92303
4.21487
4.50463
4.79204
5.07685
5.35881
5.63768
5.91323
6.18524
6.45351
6.71784
6.97805
7.23397
7.48545
7.73234
7.9745
8.21182
8.44417
8.67148
8.89363
9.11054
9.32219
9.52853
9.7295
9.92503
10.1151
10.2995
10.4783
10.6516
10.8193
10.9814
11.1381
11.2894
11.4355
11.5768
11.7138
11.8485
11.9807
12.124
12.2513
-6.71447
-6.71612
-6.71862
-6.72066
-6.72195
-6.72279
-6.72347
-6.72417
-6.72505
-6.72621
-6.72773
-6.72966
-6.73203
-6.73488
-6.73824
-6.74213
-6.74659
-6.75165
-6.75734
-6.7637
-6.77076
-6.77855
-6.78709
-6.7964
-6.80648
-6.81733
-6.82897
-6.84143
-6.85484
-6.86938
-6.88528
-6.90266
-6.92154
-6.94184
-6.96325
-6.98533
-7.00779
-7.0305
-7.05355
-7.07715
-7.10177
-7.12758
-7.1544
-7.1819
-7.20982
-7.2381
-7.26665
-7.29541
-7.32431
-7.35332
-7.38236
-7.41139
-7.44034
-7.46913
-7.49768
-7.52591
-7.55374
-7.58106
-7.60777
-7.63377
-7.65894
-7.68317
-7.70632
-7.72826
-7.74885
-7.76795
-7.78541
-7.80106
-7.81474
-7.82629
-7.83552
-7.84227
-7.84635
-7.84757
-7.84574
-7.84068
-7.83217
-7.82005
-7.80409
-7.78412
-7.75993
-7.73133
-7.69812
-7.66013
-7.61717
-7.56906
-7.51561
-7.45667
-7.39206
-7.32164
-7.24526
-7.16278
-7.07408
-6.97902
-6.87751
-6.76943
-6.65466
-6.53312
-6.40479
-6.2697
-6.12781
-5.97908
-5.8235
-5.66107
-5.49181
-5.31575
-5.13294
-4.94345
-4.74735
-4.54475
-4.33576
-4.12049
-3.8991
-3.67173
-3.43856
-3.19975
-2.95551
-2.70605
-2.45158
-2.19233
-1.92856
-1.66052
-1.38845
-1.11262
-0.833318
-0.550829
-0.265455
0.0224998
0.312742
0.604986
0.898906
1.19416
1.49044
1.78744
2.08485
2.38234
2.6796
2.97631
3.27217
3.56687
3.86012
4.15162
4.44112
4.72833
5.01299
5.29486
5.57368
5.84925
6.12133
6.38971
6.65421
6.91463
7.17081
7.42258
7.66979
7.91231
8.15001
8.3828
8.61057
8.83323
9.0507
9.26292
9.46986
9.67155
9.8679
10.0588
10.2441
10.4239
10.5981
10.7667
10.9298
11.0875
11.2398
11.3869
11.5293
11.6674
11.8031
11.9353
12.0768
12.1902
-6.70745
-6.7099
-6.71383
-6.71706
-6.71918
-6.72066
-6.72184
-6.72295
-6.72415
-6.72556
-6.72728
-6.72938
-6.7319
-6.73488
-6.73836
-6.74237
-6.74694
-6.75212
-6.75792
-6.76439
-6.77155
-6.77945
-6.7881
-6.79754
-6.80778
-6.81883
-6.83073
-6.84352
-6.85728
-6.87215
-6.88824
-6.90566
-6.92438
-6.94431
-6.96521
-6.98682
-7.00897
-7.03156
-7.05465
-7.07841
-7.10302
-7.12856
-7.15487
-7.18179
-7.20915
-7.23688
-7.26491
-7.29317
-7.32162
-7.35019
-7.37883
-7.40748
-7.43607
-7.46452
-7.49277
-7.52073
-7.5483
-7.5754
-7.60193
-7.62777
-7.65282
-7.67696
-7.70005
-7.72196
-7.74256
-7.7617
-7.77923
-7.79499
-7.80882
-7.82054
-7.82999
-7.83698
-7.84133
-7.84285
-7.84137
-7.83667
-7.82857
-7.81688
-7.80139
-7.78192
-7.75825
-7.73021
-7.6976
-7.66023
-7.61792
-7.57048
-7.51774
-7.45952
-7.39567
-7.32602
-7.25045
-7.1688
-7.08094
-6.98674
-6.88611
-6.77893
-6.6651
-6.54456
-6.41728
-6.28322
-6.14236
-5.99467
-5.84014
-5.67877
-5.51057
-5.33559
-5.15385
-4.96544
-4.77043
-4.56891
-4.36099
-4.14681
-3.92648
-3.70017
-3.46805
-3.23028
-2.98707
-2.73861
-2.48513
-2.22687
-1.96405
-1.69693
-1.42575
-1.1508
-0.872337
-0.590665
-0.306075
-0.0188726
0.270665
0.562233
0.855502
1.15013
1.44585
1.74233
2.03927
2.33632
2.63318
2.92953
3.22508
3.51951
3.81253
4.10386
4.39322
4.68033
4.96494
5.2468
5.52566
5.80129
6.07348
6.34201
6.6067
6.86734
7.12376
7.37581
7.62333
7.86621
8.1043
8.3375
8.56571
8.78882
9.00677
9.21946
9.42686
9.62894
9.82568
10.017
10.2028
10.383
10.5577
10.7269
10.8905
11.0487
11.2015
11.3492
11.4921
11.6305
11.7661
11.8968
12.0349
12.1355
-6.70089
-6.70411
-6.70939
-6.7138
-6.7168
-6.719
-6.72079
-6.72242
-6.72407
-6.72588
-6.72796
-6.73037
-6.73319
-6.73646
-6.74022
-6.74451
-6.74935
-6.7548
-6.76088
-6.76763
-6.77508
-6.78327
-6.79223
-6.80199
-6.81259
-6.82404
-6.83638
-6.84964
-6.86387
-6.87914
-6.8955
-6.91299
-6.93158
-6.95121
-6.97175
-6.99306
-7.01501
-7.03753
-7.06061
-7.08432
-7.10872
-7.13384
-7.15964
-7.18601
-7.21285
-7.24009
-7.26767
-7.29551
-7.32357
-7.35178
-7.38009
-7.40843
-7.43674
-7.46495
-7.49297
-7.52073
-7.54813
-7.5751
-7.60151
-7.62727
-7.65226
-7.67637
-7.69946
-7.7214
-7.74206
-7.76128
-7.77892
-7.79481
-7.8088
-7.8207
-7.83035
-7.83757
-7.84217
-7.84396
-7.84277
-7.83838
-7.83062
-7.81927
-7.80416
-7.78507
-7.76181
-7.73419
-7.70202
-7.6651
-7.62325
-7.5763
-7.52406
-7.46636
-7.40303
-7.33394
-7.25892
-7.17784
-7.09056
-6.99697
-6.89695
-6.7904
-6.67723
-6.55738
-6.43079
-6.29743
-6.15727
-6.01029
-5.85646
-5.6958
-5.52831
-5.35404
-5.17303
-4.98534
-4.79105
-4.59026
-4.38307
-4.16961
-3.95001
-3.72442
-3.49301
-3.25595
-3.01343
-2.76567
-2.51288
-2.25529
-1.99312
-1.72664
-1.45609
-1.18174
-0.903872
-0.622771
-0.338735
-0.0520593
0.236979
0.528062
0.820855
1.11504
1.41035
1.70647
2.00306
2.29979
2.59636
2.89246
3.18777
3.482
3.77486
4.06605
4.35531
4.64235
4.92693
5.20878
5.48766
5.76335
6.03562
6.30426
6.56908
6.82988
7.08651
7.33879
7.58657
7.82973
8.06812
8.30163
8.53016
8.75362
8.9719
9.18494
9.39266
9.59502
9.79202
9.9836
10.1697
10.3502
10.5253
10.6947
10.8587
11.0172
11.1704
11.3183
11.4614
11.5997
11.7346
11.8632
11.9979
12.0871
-6.69586
-6.69979
-6.70617
-6.71158
-6.71542
-6.71833
-6.72076
-6.72295
-6.72511
-6.72738
-6.72989
-6.73271
-6.73592
-6.73956
-6.7437
-6.74835
-6.75357
-6.75939
-6.76584
-6.77297
-6.7808
-6.78937
-6.79872
-6.80888
-6.81988
-6.83174
-6.84449
-6.85816
-6.87276
-6.88834
-6.9049
-6.92245
-6.94097
-6.9604
-6.98068
-7.00173
-7.02347
-7.04585
-7.06884
-7.09246
-7.11669
-7.14155
-7.167
-7.19298
-7.21944
-7.24631
-7.27354
-7.30106
-7.32882
-7.35677
-7.38483
-7.41296
-7.44108
-7.46912
-7.497
-7.52465
-7.55197
-7.57888
-7.60526
-7.63101
-7.65602
-7.68016
-7.70332
-7.72535
-7.74611
-7.76545
-7.78323
-7.79928
-7.81344
-7.82553
-7.83539
-7.84282
-7.84765
-7.84968
-7.84873
-7.84461
-7.83711
-7.82604
-7.8112
-7.7924
-7.76944
-7.74212
-7.71025
-7.67365
-7.63212
-7.58549
-7.53358
-7.47622
-7.41324
-7.34448
-7.26982
-7.1891
-7.10219
-7.00897
-6.90934
-6.80319
-6.69043
-6.571
-6.44485
-6.31192
-6.1722
-6.02565
-5.87226
-5.71203
-5.545
-5.37117
-5.19061
-5.00338
-4.80955
-4.60922
-4.4025
-4.1895
-3.97037
-3.74525
-3.5143
-3.27771
-3.03567
-2.78837
-2.53605
-2.27891
-2.0172
-1.75116
-1.48105
-1.20712
-0.929672
-0.648977
-0.365342
-0.0790407
0.209627
0.50034
0.792773
1.08663
1.38163
1.67747
1.97378
2.27026
2.5666
2.86248
3.1576
3.45166
3.74436
4.03543
4.32458
4.61155
4.89607
5.17788
5.45675
5.73245
6.00475
6.27345
6.53835
6.79927
7.05602
7.30846
7.55641
7.79975
8.03834
8.27207
8.50083
8.72452
8.94305
9.15633
9.36428
9.56688
9.76409
9.95588
10.1422
10.323
10.4983
10.668
10.8322
10.9909
11.1442
11.2923
11.4352
11.5731
11.707
11.8333
11.9648
12.0441
-6.6931
-6.69756
-6.70474
-6.71093
-6.71547
-6.71902
-6.72204
-6.72478
-6.72744
-6.73019
-6.73314
-6.73639
-6.74001
-6.74407
-6.74861
-6.75367
-6.7593
-6.76552
-6.77238
-6.7799
-6.78814
-6.79711
-6.80686
-6.8174
-6.82877
-6.84099
-6.85408
-6.86806
-6.88294
-6.89873
-6.91542
-6.93302
-6.95149
-6.97081
-6.99093
-7.01179
-7.03336
-7.05559
-7.07845
-7.10193
-7.12601
-7.15068
-7.1759
-7.20164
-7.22785
-7.25448
-7.28147
-7.30878
-7.33634
-7.36412
-7.39204
-7.42004
-7.44807
-7.47604
-7.50387
-7.5315
-7.55882
-7.58575
-7.61217
-7.63799
-7.66308
-7.68732
-7.71059
-7.73275
-7.75366
-7.77316
-7.7911
-7.80733
-7.82167
-7.83395
-7.844
-7.85163
-7.85665
-7.85889
-7.85814
-7.85422
-7.84692
-7.83605
-7.82141
-7.80281
-7.78004
-7.75291
-7.72123
-7.68481
-7.64347
-7.59702
-7.54529
-7.48811
-7.4253
-7.35673
-7.28224
-7.2017
-7.11498
-7.02195
-6.9225
-6.81655
-6.704
-6.58479
-6.45885
-6.32615
-6.18664
-6.04031
-5.88715
-5.72715
-5.56034
-5.38676
-5.20644
-5.01945
-4.82588
-4.62581
-4.41935
-4.20663
-3.98777
-3.76293
-3.53227
-3.29597
-3.05422
-2.80723
-2.5552
-2.29837
-2.03696
-1.77121
-1.50139
-1.22776
-0.950607
-0.670204
-0.386849
-0.100823
0.187564
0.477993
0.770153
1.06376
1.35853
1.65413
1.95022
2.24649
2.54263
2.83833
3.13327
3.42718
3.71974
4.01069
4.29972
4.58659
4.87103
5.15278
5.43161
5.70728
5.97958
6.2483
6.51324
6.7742
7.03103
7.28355
7.5316
7.77506
8.01378
8.24766
8.47657
8.70042
8.91912
9.13257
9.3407
9.54348
9.74086
9.93282
10.1193
10.3003
10.4757
10.6456
10.81
10.9688
11.1222
11.2701
11.4128
11.5501
11.6827
11.8067
11.9354
12.006
-6.69293
-6.69772
-6.70538
-6.7121
-6.71718
-6.72126
-6.72477
-6.72799
-6.73111
-6.73429
-6.73767
-6.74132
-6.74535
-6.74979
-6.75472
-6.76016
-6.76616
-6.77277
-6.78001
-6.78791
-6.79652
-6.80585
-6.81595
-6.82682
-6.83851
-6.85102
-6.86436
-6.87857
-6.89363
-6.90955
-6.92632
-6.94394
-6.96238
-6.98162
-7.00163
-7.02237
-7.04381
-7.06592
-7.08867
-7.11204
-7.136
-7.16054
-7.18563
-7.21122
-7.23728
-7.26376
-7.29063
-7.31782
-7.3453
-7.373
-7.40087
-7.42885
-7.45687
-7.48485
-7.51273
-7.54041
-7.5678
-7.59482
-7.62135
-7.64729
-7.67252
-7.69691
-7.72034
-7.74266
-7.76374
-7.78342
-7.80154
-7.81794
-7.83246
-7.84492
-7.85514
-7.86293
-7.86812
-7.87051
-7.86991
-7.86612
-7.85895
-7.8482
-7.83367
-7.81517
-7.79249
-7.76545
-7.73384
-7.69749
-7.65621
-7.60981
-7.55812
-7.50097
-7.4382
-7.36965
-7.2952
-7.21468
-7.12798
-7.03498
-6.93556
-6.82964
-6.71713
-6.59796
-6.47207
-6.33941
-6.19996
-6.05368
-5.90057
-5.74064
-5.5739
-5.40039
-5.22016
-5.03327
-4.83979
-4.63984
-4.43349
-4.2209
-4.00218
-3.77749
-3.54698
-3.31085
-3.06927
-2.82246
-2.57062
-2.31397
-2.05275
-1.78721
-1.51759
-1.24417
-0.967222
-0.687032
-0.40388
-0.118068
0.170098
0.4603
0.752245
1.04564
1.34022
1.63563
1.93153
2.22761
2.52357
2.81909
3.11387
3.40761
3.70003
3.99084
4.27976
4.56651
4.85086
5.13253
5.41129
5.68691
5.95917
6.22786
6.49279
6.75376
7.01061
7.26316
7.51127
7.75479
7.99359
8.22755
8.45656
8.68052
8.89932
9.11289
9.32116
9.52406
9.72157
9.91365
10.1003
10.2813
10.4569
10.6269
10.7913
10.9502
11.1035
11.2513
11.3936
11.5301
11.6614
11.783
11.9091
11.9722
-6.69536
-6.7003
-6.70815
-6.71514
-6.72058
-6.72504
-6.72894
-6.73255
-6.73605
-6.73959
-6.74332
-6.74732
-6.75168
-6.75646
-6.76171
-6.76748
-6.77381
-6.78074
-6.78829
-6.7965
-6.8054
-6.81502
-6.82538
-6.83651
-6.84842
-6.86113
-6.87465
-6.88899
-6.90416
-6.92015
-6.93696
-6.95457
-6.97298
-6.99217
-7.0121
-7.03275
-7.05411
-7.07614
-7.09882
-7.12212
-7.14602
-7.1705
-7.19552
-7.22106
-7.24707
-7.27351
-7.30035
-7.32753
-7.355
-7.38272
-7.41063
-7.43867
-7.46676
-7.49483
-7.52282
-7.55062
-7.57816
-7.60532
-7.63201
-7.65812
-7.68352
-7.70809
-7.7317
-7.7542
-7.77545
-7.7953
-7.81359
-7.83015
-7.84482
-7.85742
-7.86777
-7.87568
-7.88097
-7.88345
-7.88293
-7.8792
-7.87207
-7.86135
-7.84684
-7.82833
-7.80564
-7.77857
-7.74692
-7.71051
-7.66916
-7.62269
-7.57092
-7.51368
-7.45081
-7.38216
-7.3076
-7.22697
-7.14016
-7.04705
-6.94753
-6.84151
-6.7289
-6.60963
-6.48365
-6.35092
-6.21138
-6.06503
-5.91186
-5.75186
-5.58508
-5.41153
-5.23126
-5.04436
-4.85088
-4.65092
-4.4446
-4.23204
-4.01336
-3.78873
-3.55829
-3.32224
-3.08076
-2.83406
-2.58233
-2.32581
-2.06473
-1.79932
-1.52985
-1.25659
-0.979807
-0.699784
-0.416804
-0.131175
0.156793
0.446803
0.738555
1.03177
1.32616
1.62137
1.91708
2.21297
2.50874
2.80408
3.09868
3.39226
3.68452
3.97517
4.26394
4.55057
4.83479
5.11634
5.395
5.67053
5.94272
6.21135
6.47622
6.73716
6.99398
7.24653
7.49464
7.73818
7.97701
8.21101
8.44007
8.66408
8.88295
9.09659
9.30494
9.50793
9.70553
9.89769
10.0844
10.2656
10.4412
10.6112
10.7757
10.9345
11.0877
11.2352
11.377
11.5125
11.6425
11.7618
11.8857
11.9424
-6.70021
-6.70513
-6.7129
-6.71994
-6.72554
-6.73024
-6.73441
-6.73828
-6.74205
-6.74587
-6.74986
-6.75413
-6.75874
-6.76377
-6.76926
-6.77526
-6.78182
-6.78897
-6.79673
-6.80515
-6.81424
-6.82404
-6.83457
-6.84584
-6.85789
-6.87071
-6.88432
-6.89874
-6.91396
-6.92998
-6.94679
-6.9644
-6.98278
-7.00192
-7.02181
-7.04243
-7.06374
-7.08574
-7.10839
-7.13167
-7.15557
-7.18005
-7.20508
-7.23064
-7.25669
-7.28317
-7.31006
-7.33731
-7.36487
-7.39269
-7.42071
-7.44887
-7.4771
-7.50533
-7.53347
-7.56144
-7.58915
-7.6165
-7.64338
-7.66967
-7.69525
-7.72
-7.74378
-7.76645
-7.78785
-7.80784
-7.82626
-7.84294
-7.8577
-7.87038
-7.88078
-7.88874
-7.89405
-7.89653
-7.89599
-7.89223
-7.88505
-7.87425
-7.85964
-7.84103
-7.81821
-7.79099
-7.75919
-7.72261
-7.68108
-7.63441
-7.58243
-7.52498
-7.4619
-7.39304
-7.31825
-7.23741
-7.15038
-7.05705
-6.95732
-6.85109
-6.73827
-6.61881
-6.49265
-6.35972
-6.22002
-6.0735
-5.92018
-5.76004
-5.59313
-5.41946
-5.2391
-5.0521
-4.85856
-4.65855
-4.45219
-4.2396
-4.02092
-3.79629
-3.56589
-3.32988
-3.08846
-2.84183
-2.59019
-2.33376
-2.07279
-1.80751
-1.53818
-1.26506
-0.98843
-0.708569
-0.42577
-0.140334
0.147434
0.437245
0.72879
1.0218
1.31599
1.611
1.90649
2.20217
2.49772
2.79285
3.08726
3.38064
3.6727
3.96317
4.25177
4.53822
4.82227
5.10368
5.38219
5.6576
5.92966
6.19818
6.46296
6.72382
6.98058
7.23307
7.48114
7.72466
7.96347
8.19747
8.42653
8.65056
8.86946
9.08313
9.29152
9.49457
9.69222
9.88443
10.0712
10.2524
10.428
10.5981
10.7625
10.9213
11.0743
11.2214
11.3626
11.4972
11.6257
11.7429
11.8647
11.916
-6.70715
-6.7119
-6.71938
-6.72627
-6.73187
-6.73664
-6.74093
-6.74496
-6.74889
-6.75287
-6.75701
-6.76142
-6.76618
-6.77134
-6.77696
-6.78308
-6.78974
-6.79698
-6.80484
-6.81335
-6.82252
-6.8324
-6.843
-6.85434
-6.86643
-6.8793
-6.89295
-6.90739
-6.92262
-6.93864
-6.95544
-6.97303
-6.9914
-7.01052
-7.0304
-7.051
-7.07231
-7.09432
-7.117
-7.14032
-7.16427
-7.18881
-7.21391
-7.23954
-7.26566
-7.29225
-7.31927
-7.34665
-7.37436
-7.40234
-7.43053
-7.45886
-7.48727
-7.51567
-7.544
-7.57216
-7.60005
-7.62758
-7.65463
-7.68109
-7.70682
-7.73171
-7.75562
-7.77839
-7.79989
-7.81995
-7.83842
-7.85512
-7.86989
-7.88255
-7.89292
-7.90081
-7.90604
-7.90842
-7.90774
-7.90383
-7.89647
-7.88549
-7.87067
-7.85182
-7.82876
-7.80129
-7.76921
-7.73235
-7.69053
-7.64356
-7.59128
-7.53352
-7.47012
-7.40095
-7.32585
-7.2447
-7.15737
-7.06374
-6.96371
-6.8572
-6.74411
-6.62439
-6.49797
-6.3648
-6.22487
-6.07814
-5.92461
-5.76429
-5.59721
-5.42339
-5.2429
-5.05579
-4.86214
-4.66206
-4.45565
-4.24302
-4.02432
-3.7997
-3.56932
-3.33336
-3.092
-2.84545
-2.59391
-2.33759
-2.07675
-1.81161
-1.54244
-1.26949
-0.993047
-0.713382
-0.430796
-0.145581
0.141966
0.431543
0.722849
1.01563
1.30958
1.60432
1.89955
2.19497
2.49027
2.78515
3.0793
3.37243
3.66426
3.95449
4.24286
4.5291
4.81294
5.09414
5.37246
5.64768
5.91958
6.18794
6.45258
6.71331
6.96996
7.22235
7.47034
7.71379
7.95254
8.1865
8.41553
8.63953
8.85842
9.0721
9.2805
9.48356
9.68124
9.87348
10.0602
10.2415
10.4171
10.5872
10.7515
10.9101
11.0629
11.2096
11.3501
11.4837
11.6109
11.7261
11.8458
11.8927
-6.71578
-6.72026
-6.72728
-6.73385
-6.73929
-6.744
-6.74827
-6.7523
-6.75625
-6.76025
-6.76443
-6.76885
-6.77361
-6.77877
-6.78437
-6.79048
-6.79713
-6.80436
-6.81221
-6.8207
-6.82987
-6.83973
-6.85032
-6.86164
-6.87372
-6.88657
-6.9002
-6.91461
-6.92982
-6.94582
-6.96261
-6.98019
-6.99854
-7.01767
-7.03755
-7.05818
-7.07953
-7.10158
-7.12431
-7.1477
-7.17172
-7.19635
-7.22155
-7.2473
-7.27357
-7.30031
-7.32749
-7.35506
-7.38295
-7.41111
-7.43947
-7.46798
-7.49656
-7.52513
-7.55362
-7.58193
-7.60996
-7.63762
-7.66478
-7.69133
-7.71714
-7.74208
-7.76601
-7.78879
-7.81027
-7.83029
-7.84869
-7.8653
-7.87995
-7.89246
-7.90266
-7.91036
-7.91537
-7.9175
-7.91657
-7.91237
-7.90472
-7.89341
-7.87827
-7.85908
-7.83566
-7.80782
-7.77537
-7.73812
-7.69591
-7.64856
-7.59589
-7.53774
-7.47396
-7.4044
-7.32893
-7.24741
-7.15972
-7.06575
-6.96538
-6.85854
-6.74515
-6.62513
-6.49843
-6.36501
-6.22482
-6.07787
-5.92414
-5.76364
-5.59639
-5.42244
-5.24182
-5.05461
-4.86089
-4.66076
-4.45431
-4.24168
-4.023
-3.79842
-3.5681
-3.33222
-3.09096
-2.84453
-2.59313
-2.33698
-2.07631
-1.81137
-1.5424
-1.26968
-0.993477
-0.714076
-0.431761
-0.146822
0.140447
0.429722
0.720732
1.01323
1.30686
1.60127
1.89617
2.19127
2.48625
2.7808
3.07464
3.36747
3.65899
3.94893
4.237
4.52295
4.80652
5.08746
5.36554
5.64052
5.91219
6.18034
6.44479
6.70534
6.96183
7.21407
7.46193
7.70526
7.94392
8.17779
8.40675
8.6307
8.84954
9.06319
9.27157
9.47463
9.6723
9.86455
10.0513
10.2325
10.4082
10.5782
10.7424
10.9009
11.0533
11.1996
11.3394
11.472
11.5978
11.7111
11.8289
11.8722
-6.7257
-6.72983
-6.7363
-6.74242
-6.74756
-6.75205
-6.75614
-6.76002
-6.76383
-6.7677
-6.77173
-6.77601
-6.78064
-6.78566
-6.79113
-6.79711
-6.80364
-6.81075
-6.81848
-6.82686
-6.83593
-6.8457
-6.85619
-6.86743
-6.87944
-6.89222
-6.90579
-6.92015
-6.93532
-6.95129
-6.96806
-6.98564
-7.00399
-7.02312
-7.04302
-7.06367
-7.08505
-7.10715
-7.12995
-7.15341
-7.17753
-7.20227
-7.22761
-7.25351
-7.27994
-7.30684
-7.33418
-7.36191
-7.38995
-7.41825
-7.44674
-7.47535
-7.50403
-7.53269
-7.56124
-7.5896
-7.61767
-7.64533
-7.67248
-7.69898
-7.72472
-7.74957
-7.77338
-7.796
-7.8173
-7.83711
-7.85528
-7.87163
-7.886
-7.89821
-7.90808
-7.91543
-7.92008
-7.92183
-7.9205
-7.9159
-7.90782
-7.89609
-7.8805
-7.86087
-7.837
-7.80871
-7.77581
-7.73812
-7.69547
-7.64767
-7.59456
-7.53598
-7.47177
-7.40181
-7.32595
-7.24406
-7.156
-7.06167
-6.96097
-6.85382
-6.74013
-6.61983
-6.49287
-6.35921
-6.21881
-6.07167
-5.91777
-5.75712
-5.58975
-5.4157
-5.23501
-5.04776
-4.85402
-4.65389
-4.44748
-4.2349
-4.0163
-3.79183
-3.56164
-3.32592
-3.08485
-2.83862
-2.58744
-2.33153
-2.07112
-1.80646
-1.53779
-1.26538
-0.989518
-0.710468
-0.428502
-0.143915
0.142974
0.431856
0.722497
1.01462
1.30783
1.60182
1.89631
2.191
2.48557
2.77973
3.07317
3.3656
3.65674
3.94631
4.23402
4.51961
4.80284
5.08344
5.3612
5.63587
5.90726
6.17514
6.43934
6.69966
6.95592
7.20797
7.45566
7.69882
7.93734
8.17109
8.39994
8.6238
8.84257
9.05616
9.2645
9.46753
9.66518
9.85742
10.0442
10.2254
10.401
10.5709
10.735
10.8933
11.0454
11.1912
11.3303
11.4619
11.5864
11.6979
11.8139
11.8543
-6.73656
-6.74032
-6.74616
-6.75173
-6.75643
-6.76053
-6.76428
-6.76782
-6.77131
-6.77486
-6.77859
-6.78258
-6.78692
-6.79167
-6.79689
-6.80263
-6.80892
-6.81582
-6.82335
-6.83154
-6.84043
-6.85004
-6.86038
-6.8715
-6.88338
-6.89606
-6.90954
-6.92382
-6.93891
-6.95481
-6.97153
-6.98905
-7.00738
-7.0265
-7.04639
-7.06705
-7.08845
-7.11058
-7.13344
-7.15699
-7.18121
-7.20606
-7.2315
-7.2575
-7.28402
-7.311
-7.3384
-7.36616
-7.39422
-7.42252
-7.45099
-7.47957
-7.50818
-7.53676
-7.56521
-7.59344
-7.62135
-7.64883
-7.67576
-7.70203
-7.7275
-7.75205
-7.77553
-7.79782
-7.81874
-7.83817
-7.85592
-7.87184
-7.88577
-7.89752
-7.90692
-7.91379
-7.91795
-7.9192
-7.91737
-7.91225
-7.90367
-7.89143
-7.87533
-7.85519
-7.83082
-7.80203
-7.76864
-7.73047
-7.68735
-7.63909
-7.58554
-7.52652
-7.46192
-7.39157
-7.31533
-7.23308
-7.14469
-7.05004
-6.94906
-6.84163
-6.7277
-6.60718
-6.48002
-6.34619
-6.20565
-6.05839
-5.9044
-5.7437
-5.5763
-5.40224
-5.22158
-5.03437
-4.84072
-4.64069
-4.43442
-4.22201
-4.0036
-3.77934
-3.54941
-3.31395
-3.07317
-2.82725
-2.57641
-2.32086
-2.06083
-1.79656
-1.52832
-1.25635
-0.980943
-0.702337
-0.420828
-0.136719
0.149664
0.438051
0.728228
1.01985
1.31253
1.60599
1.89996
2.19414
2.4882
2.78185
3.0748
3.36675
3.65741
3.94651
4.23377
4.51892
4.80172
5.08192
5.35927
5.63357
5.9046
6.17215
6.43602
6.69605
6.95204
7.20385
7.4513
7.69426
7.9326
8.16618
8.39489
8.61863
8.8373
9.05081
9.25908
9.46206
9.65968
9.85189
10.0386
10.2198
10.3953
10.5652
10.7292
10.8872
11.039
11.1843
11.3227
11.4534
11.5765
11.6865
11.8005
11.8389
-6.74855
-6.75193
-6.75715
-6.76208
-6.76619
-6.7697
-6.77287
-6.77585
-6.77879
-6.78182
-6.78504
-6.78856
-6.79245
-6.79679
-6.80161
-6.80698
-6.81293
-6.81951
-6.82674
-6.83466
-6.84328
-6.85264
-6.86276
-6.87365
-6.88533
-6.89782
-6.91111
-6.92523
-6.94017
-6.95593
-6.9725
-6.98989
-7.0081
-7.02712
-7.04694
-7.06754
-7.08891
-7.11101
-7.13384
-7.15736
-7.18153
-7.20633
-7.2317
-7.2576
-7.284
-7.31084
-7.33808
-7.36565
-7.39349
-7.42155
-7.44976
-7.47806
-7.50639
-7.53466
-7.56277
-7.59064
-7.61815
-7.6452
-7.67168
-7.69746
-7.72243
-7.74646
-7.76941
-7.79114
-7.8115
-7.83035
-7.84752
-7.86285
-7.87618
-7.88734
-7.89615
-7.90243
-7.90599
-7.90666
-7.90425
-7.89857
-7.88943
-7.87663
-7.86
-7.83934
-7.81446
-7.78518
-7.75131
-7.71268
-7.66912
-7.62045
-7.56651
-7.50714
-7.44219
-7.37152
-7.29498
-7.21245
-7.12381
-7.02894
-6.92775
-6.82016
-6.70609
-6.58546
-6.45822
-6.32434
-6.18378
-6.03653
-5.88259
-5.72196
-5.55466
-5.38073
-5.20024
-5.01323
-4.8198
-4.62004
-4.41404
-4.20195
-3.98389
-3.76001
-3.53047
-3.29545
-3.05511
-2.80967
-2.55932
-2.30429
-2.0448
-1.78109
-1.51343
-1.24206
-0.96724
-0.689233
-0.408345
-0.124881
0.160846
0.448617
0.738188
1.02914
1.32113
1.61394