/*--------------------------------*- C++ -*----------------------------------*\
  =========                 |
  \\      /  F ield         | OpenFOAM: The Open Source CFD Toolbox
   \\    /   O peration     | Website:  https://openfoam.org
    \\  /    A nd           | Version:  7
     \\/     M anipulation  |
\*---------------------------------------------------------------------------*/
FoamFile
{
    version     2.0;
    format      ascii;
    class       surfaceScalarField;
    location    "288";
    object      phi;
}
// * * * * * * * * * * * * * * * * * * * * * * * * * * * * * * * * * * * * * //

dimensions      [0 3 -1 0 0 0 0];

internalField   nonuniform List<scalar> 
24170
(
3.12901e-06
5.93999e-08
3.04663e-06
8.23769e-08
2.97354e-06
7.30881e-08
2.90492e-06
6.8626e-08
2.8406e-06
6.43184e-08
2.78329e-06
5.73074e-08
2.73398e-06
4.93059e-08
2.69205e-06
4.19294e-08
2.65641e-06
3.5644e-08
2.626e-06
3.04075e-08
2.59986e-06
2.61459e-08
2.57713e-06
2.27208e-08
2.55719e-06
1.99471e-08
2.53945e-06
1.77404e-08
2.52359e-06
1.58583e-08
2.50873e-06
1.48573e-08
2.49523e-06
1.35001e-08
1.73835e-08
2.47784e-06
3.45306e-06
2.35848e-08
3.45701e-06
7.8436e-08
3.45055e-06
7.95475e-08
3.4391e-06
8.00792e-08
3.42432e-06
7.9091e-08
3.40708e-06
7.45521e-08
3.38787e-06
6.85133e-08
3.36736e-06
6.24409e-08
3.34623e-06
5.67729e-08
3.32507e-06
5.15668e-08
3.30437e-06
4.68487e-08
3.2844e-06
4.26908e-08
3.26536e-06
3.89845e-08
3.2473e-06
3.58027e-08
3.2303e-06
3.2852e-08
3.21426e-06
3.09024e-08
3.19953e-06
2.82319e-08
2.91118e-08
3.1878e-06
3.66816e-06
1.7941e-08
3.6792e-06
6.73924e-08
3.68543e-06
7.33164e-08
3.68947e-06
7.604e-08
3.69108e-06
7.74865e-08
3.69012e-06
7.55098e-08
3.68699e-06
7.16389e-08
3.68217e-06
6.72676e-08
3.67603e-06
6.2906e-08
3.66892e-06
5.86818e-08
3.6611e-06
5.46663e-08
3.65283e-06
5.09592e-08
3.6443e-06
4.75197e-08
3.63566e-06
4.44347e-08
3.62699e-06
4.15246e-08
3.61864e-06
3.92551e-08
3.61016e-06
3.6714e-08
3.55872e-08
3.60368e-06
3.92585e-06
1.74797e-08
3.93592e-06
5.73201e-08
3.94258e-06
6.66618e-08
3.94812e-06
7.04942e-08
3.95255e-06
7.3065e-08
3.9555e-06
7.25524e-08
3.95718e-06
6.99577e-08
3.95783e-06
6.66191e-08
3.95764e-06
6.31009e-08
3.95675e-06
5.95717e-08
3.9553e-06
5.61166e-08
3.95341e-06
5.28448e-08
3.95118e-06
4.97498e-08
3.94871e-06
4.69024e-08
3.94603e-06
4.42048e-08
3.9434e-06
4.18903e-08
3.94057e-06
3.95431e-08
3.76241e-08
3.93853e-06
4.2082e-06
1.64064e-08
4.21599e-06
4.95317e-08
4.22169e-06
6.09592e-08
4.2268e-06
6.53828e-08
4.23156e-06
6.83087e-08
4.23554e-06
6.85707e-08
4.23872e-06
6.67772e-08
4.24121e-06
6.41269e-08
4.24312e-06
6.11908e-08
4.24454e-06
5.81546e-08
4.24554e-06
5.51121e-08
4.24622e-06
5.21693e-08
4.24662e-06
4.93462e-08
4.24683e-06
4.66949e-08
4.24686e-06
4.41687e-08
4.24688e-06
4.18713e-08
4.24682e-06
3.96046e-08
3.74334e-08
4.24701e-06
4.51071e-06
1.47825e-08
4.51689e-06
4.33556e-08
4.52214e-06
5.5706e-08
4.52696e-06
6.05597e-08
4.53168e-06
6.3588e-08
4.53594e-06
6.43116e-08
4.53963e-06
6.30909e-08
4.54281e-06
6.09502e-08
4.54555e-06
5.84495e-08
4.54792e-06
5.57863e-08
4.54996e-06
5.30647e-08
4.55175e-06
5.03827e-08
4.55332e-06
4.7779e-08
4.55472e-06
4.52906e-08
4.55599e-06
4.28998e-08
4.55722e-06
4.06425e-08
4.5584e-06
3.84178e-08
3.61843e-08
4.55965e-06
4.83433e-06
1.31712e-08
4.83963e-06
3.80542e-08
4.84476e-06
5.05761e-08
4.84947e-06
5.58491e-08
4.85411e-06
5.89462e-08
4.85844e-06
5.99832e-08
4.86233e-06
5.92054e-08
4.86581e-06
5.74694e-08
4.86894e-06
5.53157e-08
4.87177e-06
5.29531e-08
4.87434e-06
5.04938e-08
4.8767e-06
4.80296e-08
4.87887e-06
4.56096e-08
4.88089e-06
4.32627e-08
4.88281e-06
4.09855e-08
4.88467e-06
3.87832e-08
4.88648e-06
3.66e-08
3.43822e-08
4.88829e-06
5.18105e-06
1.17036e-08
5.18576e-06
3.33444e-08
5.19076e-06
4.5569e-08
5.19542e-06
5.11909e-08
5.20002e-06
5.43518e-08
5.20439e-06
5.56133e-08
5.2084e-06
5.51965e-08
5.21206e-06
5.38035e-08
5.21543e-06
5.19452e-08
5.21854e-06
4.98408e-08
5.22143e-06
4.76081e-08
5.22412e-06
4.53354e-08
5.22666e-06
4.30766e-08
5.22906e-06
4.08584e-08
5.23136e-06
3.86843e-08
5.23359e-06
3.65493e-08
5.23577e-06
3.44205e-08
3.22587e-08
5.2379e-06
5.55269e-06
1.0347e-08
5.55689e-06
2.91446e-08
5.5617e-06
4.0757e-08
5.56632e-06
4.65757e-08
5.57089e-06
4.97788e-08
5.57531e-06
5.11977e-08
5.57942e-06
5.10793e-08
5.58324e-06
4.99887e-08
5.58679e-06
4.83942e-08
5.59011e-06
4.65228e-08
5.59322e-06
4.44957e-08
5.59616e-06
4.23995e-08
5.59894e-06
4.02901e-08
5.6016e-06
3.81953e-08
5.60417e-06
3.61228e-08
5.60665e-06
3.40678e-08
5.60906e-06
3.20104e-08
2.99321e-08
5.61138e-06
5.95104e-06
9.08282e-09
5.95479e-06
2.53939e-08
5.95937e-06
3.61794e-08
5.96393e-06
4.20142e-08
5.96848e-06
4.52238e-08
5.97294e-06
4.67436e-08
5.97715e-06
4.68648e-08
5.9811e-06
4.60402e-08
5.98481e-06
4.46854e-08
5.9883e-06
4.30291e-08
5.9916e-06
4.11948e-08
5.99473e-06
3.92673e-08
5.99772e-06
3.73031e-08
6.00058e-06
3.53324e-08
6.00334e-06
3.33667e-08
6.006e-06
3.14055e-08
6.00857e-06
2.94386e-08
2.7464e-08
6.01104e-06
6.37798e-06
7.91066e-09
6.38135e-06
2.20277e-08
6.38568e-06
3.18467e-08
6.39017e-06
3.7523e-08
6.3947e-06
4.06924e-08
6.39918e-06
4.22631e-08
6.40348e-06
4.25656e-08
6.40756e-06
4.19686e-08
6.41141e-06
4.08312e-08
6.41506e-06
3.93751e-08
6.41853e-06
3.77245e-08
6.42184e-06
3.59617e-08
6.425e-06
3.41432e-08
6.42803e-06
3.23014e-08
6.43094e-06
3.04518e-08
6.43375e-06
2.85992e-08
6.43645e-06
2.67407e-08
2.48873e-08
6.43902e-06
5.74176e-06
6.98367e-09
5.74435e-06
1.94424e-08
5.74782e-06
2.83741e-08
5.75155e-06
3.37907e-08
5.75536e-06
3.68846e-08
5.75916e-06
3.84646e-08
5.76285e-06
3.88763e-08
5.76637e-06
3.84401e-08
5.76974e-06
3.74688e-08
5.77294e-06
3.61714e-08
5.77599e-06
3.46697e-08
5.77891e-06
3.30448e-08
5.7817e-06
3.13514e-08
5.78438e-06
2.96243e-08
5.78695e-06
2.78813e-08
5.78942e-06
2.6132e-08
5.79178e-06
2.43782e-08
2.26392e-08
5.79403e-06
6.99914e-06
5.99922e-09
7.00188e-06
1.67065e-08
7.00564e-06
2.46062e-08
7.00981e-06
2.96192e-08
7.01414e-06
3.25588e-08
7.0185e-06
3.41042e-08
7.02278e-06
3.45959e-08
7.02691e-06
3.43084e-08
7.03087e-06
3.35052e-08
7.03467e-06
3.23763e-08
7.0383e-06
3.10392e-08
7.04177e-06
2.95704e-08
7.0451e-06
2.80242e-08
7.04829e-06
2.64351e-08
7.05135e-06
2.48249e-08
7.05427e-06
2.32065e-08
7.05706e-06
2.1586e-08
1.99892e-08
7.05971e-06
8.53188e-06
4.965e-09
8.53474e-06
1.38475e-08
8.53877e-06
2.05709e-08
8.54338e-06
2.50158e-08
8.54824e-06
2.76973e-08
8.5532e-06
2.91449e-08
8.55812e-06
2.96711e-08
8.56292e-06
2.95067e-08
8.56756e-06
2.88649e-08
8.57203e-06
2.79102e-08
8.57632e-06
2.67507e-08
8.58043e-06
2.54582e-08
8.58437e-06
2.40832e-08
8.58815e-06
2.26607e-08
8.59176e-06
2.12137e-08
8.5952e-06
1.97587e-08
8.59848e-06
1.83049e-08
1.68809e-08
8.60159e-06
1.04003e-05
3.89022e-09
1.04033e-05
1.08853e-08
1.04075e-05
1.62906e-08
1.04126e-05
1.99901e-08
1.0418e-05
2.22845e-08
1.04236e-05
2.35511e-08
1.04292e-05
2.40497e-08
1.04347e-05
2.39678e-08
1.04401e-05
2.34695e-08
1.04453e-05
2.26883e-08
1.04504e-05
2.17174e-08
1.04552e-05
2.06208e-08
1.04599e-05
1.94436e-08
1.04643e-05
1.82192e-08
1.04685e-05
1.69704e-08
1.04726e-05
1.57153e-08
1.04764e-05
1.44645e-08
1.32472e-08
1.04801e-05
1.26779e-05
2.78003e-09
1.2681e-05
7.81481e-09
1.26855e-05
1.17643e-08
1.26909e-05
1.45371e-08
1.26969e-05
1.62945e-08
1.27032e-05
1.72755e-08
1.27096e-05
1.76698e-08
1.27159e-05
1.76165e-08
1.27222e-05
1.72333e-08
1.27283e-05
1.66181e-08
1.27341e-05
1.58437e-08
1.27398e-05
1.4962e-08
1.27452e-05
1.40108e-08
1.27504e-05
1.30182e-08
1.27554e-05
1.20054e-08
1.27601e-05
1.09891e-08
1.27646e-05
9.97984e-09
9.00467e-09
1.27688e-05
1.54543e-05
1.62383e-09
1.54576e-05
4.59066e-09
1.54624e-05
6.93549e-09
1.54683e-05
8.59863e-09
1.5475e-05
9.65509e-09
1.5482e-05
1.02301e-08
1.54892e-05
1.04329e-08
1.54965e-05
1.03476e-08
1.55037e-05
1.00447e-08
1.55107e-05
9.58423e-09
1.55176e-05
9.01319e-09
1.55242e-05
8.36652e-09
1.55305e-05
7.6707e-09
1.55366e-05
6.94621e-09
1.55424e-05
6.20911e-09
1.55479e-05
5.47255e-09
1.55531e-05
4.74483e-09
4.04902e-09
1.55581e-05
1.88389e-05
3.81873e-10
1.88424e-05
1.08902e-09
1.88477e-05
1.63149e-09
1.88543e-05
1.98482e-09
1.88618e-05
2.17014e-09
1.88698e-05
2.21525e-09
1.88781e-05
2.142e-09
1.88865e-05
1.97024e-09
1.88948e-05
1.72031e-09
1.8903e-05
1.41075e-09
1.89109e-05
1.05715e-09
1.89186e-05
6.7249e-10
1.8926e-05
2.67947e-10
1.89331e-05
-1.46917e-10
1.89399e-05
-5.63944e-10
1.89463e-05
-9.75755e-10
1.89525e-05
-1.378e-09
-1.75328e-09
1.89583e-05
2.29648e-05
-1.04681e-09
2.29688e-05
-2.97872e-09
2.2975e-05
-4.5664e-09
2.29828e-05
-5.77945e-09
2.29916e-05
-6.63717e-09
2.3001e-05
-7.2257e-09
2.30108e-05
-7.63243e-09
2.30207e-05
-7.91182e-09
2.30305e-05
-8.10046e-09
2.30402e-05
-8.22938e-09
2.30495e-05
-8.32216e-09
2.30586e-05
-8.39313e-09
2.30673e-05
-8.45006e-09
2.30757e-05
-8.49719e-09
2.30836e-05
-8.53648e-09
2.30912e-05
-8.56809e-09
2.30985e-05
-8.59262e-09
-8.5995e-09
2.31053e-05
1.68118e-05
-2.16808e-09
1.6815e-05
-6.14576e-09
1.68198e-05
-9.39036e-09
1.68258e-05
-1.17687e-08
1.68325e-05
-1.33386e-08
1.68396e-05
-1.43277e-08
1.68469e-05
-1.49237e-08
1.68542e-05
-1.523e-08
1.68614e-05
-1.53258e-08
1.68685e-05
-1.52827e-08
1.68753e-05
-1.51536e-08
1.68819e-05
-1.49711e-08
1.68882e-05
-1.47561e-08
1.68942e-05
-1.45221e-08
1.69e-05
-1.4278e-08
1.69054e-05
-1.40284e-08
1.69106e-05
-1.37768e-08
-1.35165e-08
1.69155e-05
1.46356e-05
-3.24498e-09
1.46387e-05
-9.22907e-09
1.46434e-05
-1.4099e-08
1.46492e-05
-1.75047e-08
1.46554e-05
-1.96158e-08
1.4662e-05
-2.08821e-08
1.46687e-05
-2.15735e-08
1.46752e-05
-2.18261e-08
1.46817e-05
-2.17706e-08
1.46879e-05
-2.15239e-08
1.46939e-05
-2.1161e-08
1.46997e-05
-2.07269e-08
1.47052e-05
-2.02515e-08
1.47104e-05
-1.97562e-08
1.47154e-05
-1.92541e-08
1.47201e-05
-1.87529e-08
1.47246e-05
-1.82575e-08
-1.77639e-08
1.47289e-05
1.27411e-05
-4.25344e-09
1.27443e-05
-1.23535e-08
1.27491e-05
-1.89247e-08
1.27547e-05
-2.31439e-08
1.27607e-05
-2.55879e-08
1.27668e-05
-2.70305e-08
1.2773e-05
-2.77343e-08
1.2779e-05
-2.78487e-08
1.27848e-05
-2.75807e-08
1.27904e-05
-2.70956e-08
1.27957e-05
-2.6483e-08
1.28008e-05
-2.57943e-08
1.28056e-05
-2.50666e-08
1.28102e-05
-2.43255e-08
1.28145e-05
-2.35866e-08
1.28186e-05
-2.28582e-08
1.28225e-05
-2.21451e-08
-2.14446e-08
1.28262e-05
1.10918e-05
-5.09603e-09
1.1095e-05
-1.55723e-08
1.11001e-05
-2.40457e-08
1.11057e-05
-2.87621e-08
1.11115e-05
-3.13156e-08
1.11173e-05
-3.2835e-08
1.1123e-05
-3.3452e-08
1.11285e-05
-3.33486e-08
1.11337e-05
-3.28272e-08
1.11387e-05
-3.20852e-08
1.11434e-05
-3.12143e-08
1.11479e-05
-3.02711e-08
1.11522e-05
-2.92988e-08
1.11562e-05
-2.83259e-08
1.11599e-05
-2.73678e-08
1.11635e-05
-2.64325e-08
1.11669e-05
-2.55241e-08
-2.46403e-08
1.11701e-05
9.65582e-06
-5.70199e-09
9.65924e-06
-1.89936e-08
9.66458e-06
-2.9387e-08
9.67007e-06
-3.42529e-08
9.67562e-06
-3.68662e-08
9.68117e-06
-3.83853e-08
9.6865e-06
-3.87745e-08
9.69151e-06
-3.83651e-08
9.69624e-06
-3.75597e-08
9.70071e-06
-3.65526e-08
9.70492e-06
-3.54226e-08
9.70888e-06
-3.42292e-08
9.7126e-06
-3.30199e-08
9.7161e-06
-3.18243e-08
9.71939e-06
-3.06575e-08
9.72248e-06
-2.95267e-08
9.72539e-06
-2.8434e-08
-2.73754e-08
9.72813e-06
8.40532e-06
-5.67146e-09
8.40963e-06
-2.33055e-08
8.41486e-06
-3.46175e-08
8.41989e-06
-3.92749e-08
8.42525e-06
-4.2225e-08
8.43064e-06
-4.37847e-08
8.43572e-06
-4.38505e-08
8.44042e-06
-4.30606e-08
8.44477e-06
-4.19177e-08
8.44882e-06
-4.05979e-08
8.45257e-06
-3.91707e-08
8.45604e-06
-3.76986e-08
8.45925e-06
-3.6231e-08
8.46222e-06
-3.47961e-08
8.46497e-06
-3.34087e-08
8.46752e-06
-3.2075e-08
8.46988e-06
-3.07971e-08
-2.95714e-08
8.47208e-06
7.31455e-06
-2.93253e-09
7.32119e-06
-2.9946e-08
7.32673e-06
-4.01647e-08
7.33168e-06
-4.42211e-08
7.33707e-06
-4.7616e-08
7.34238e-06
-4.9098e-08
7.34725e-06
-4.87198e-08
7.35166e-06
-4.74642e-08
7.35562e-06
-4.58857e-08
7.35917e-06
-4.41431e-08
7.36232e-06
-4.23167e-08
7.3651e-06
-4.04788e-08
7.36755e-06
-3.86826e-08
7.3697e-06
-3.69521e-08
7.3716e-06
-3.53025e-08
7.37326e-06
-3.37365e-08
7.37472e-06
-3.22545e-08
-3.08472e-08
7.37599e-06
6.36245e-06
4.68441e-09
6.37189e-06
-3.93852e-08
6.37931e-06
-4.75883e-08
6.38595e-06
-5.08572e-08
6.39223e-06
-5.38926e-08
6.39753e-06
-5.44043e-08
6.40182e-06
-5.30072e-08
6.40529e-06
-5.09369e-08
6.40808e-06
-4.86771e-08
6.41026e-06
-4.63192e-08
6.41188e-06
-4.394e-08
6.41302e-06
-4.16169e-08
6.41374e-06
-3.94004e-08
6.41409e-06
-3.73091e-08
6.41415e-06
-3.53567e-08
6.41395e-06
-3.3539e-08
6.41355e-06
-3.18574e-08
-3.02913e-08
6.413e-06
5.5412e-06
8.94759e-09
5.55032e-06
-4.85059e-08
5.55834e-06
-5.56034e-08
5.56604e-06
-5.85552e-08
5.57249e-06
-6.03494e-08
5.57681e-06
-5.87237e-08
5.57905e-06
-5.52427e-08
5.5796e-06
-5.14896e-08
5.57884e-06
-4.79166e-08
5.57705e-06
-4.45267e-08
5.57445e-06
-4.13388e-08
5.57123e-06
-3.83957e-08
5.56753e-06
-3.57055e-08
5.56348e-06
-3.326e-08
5.55918e-06
-3.10563e-08
5.55472e-06
-2.90774e-08
5.55019e-06
-2.73247e-08
-2.57496e-08
5.54564e-06
4.86004e-06
-2.34882e-08
4.86538e-06
-5.38463e-08
4.86524e-06
-5.54555e-08
4.86216e-06
-5.54825e-08
4.85699e-06
-5.51754e-08
4.84949e-06
-5.12189e-08
4.83978e-06
-4.55414e-08
4.82839e-06
-4.00906e-08
4.81581e-06
-3.53368e-08
4.80252e-06
-3.12413e-08
4.78891e-06
-2.77334e-08
4.77527e-06
-2.47504e-08
4.76178e-06
-2.22142e-08
4.74857e-06
-2.00536e-08
4.73574e-06
-1.82227e-08
4.72335e-06
-1.66882e-08
4.71151e-06
-1.54878e-08
-1.51411e-08
4.7009e-06
4.17919e-06
4.12534e-06
4.06989e-06
4.0144e-06
3.95923e-06
3.90801e-06
3.86247e-06
3.82238e-06
3.78704e-06
3.7558e-06
3.72807e-06
3.70332e-06
3.6811e-06
3.66105e-06
3.64282e-06
3.62614e-06
3.61065e-06
3.59551e-06
1.0886e-08
-1.08769e-08
2.41876e-08
-1.32977e-08
3.389e-08
-9.68536e-09
3.85031e-08
-4.60989e-09
3.79312e-08
5.90348e-10
3.27359e-08
5.19995e-09
2.3876e-08
8.88094e-09
1.22318e-08
1.16481e-08
-1.43562e-09
1.36883e-08
-1.67023e-08
1.52661e-08
-3.32463e-08
1.65611e-08
-5.09219e-08
1.76698e-08
-6.95904e-08
1.86823e-08
-8.9243e-08
1.96413e-08
-1.09801e-07
2.05682e-08
-1.31283e-07
2.1467e-08
-1.5362e-07
2.23401e-08
-1.76814e-07
2.31818e-08
-2.00796e-07
2.39887e-08
-2.25537e-07
2.47511e-08
-2.50992e-07
2.54616e-08
-2.77056e-07
2.61124e-08
-3.03738e-07
2.66942e-08
-3.30862e-07
2.721e-08
-3.58505e-07
2.76576e-08
-3.86428e-07
2.80241e-08
-4.14763e-07
2.83261e-08
-4.43407e-07
2.8714e-08
-4.7262e-07
2.91791e-08
-5.02426e-07
2.97869e-08
-5.33557e-07
3.10498e-08
-5.67979e-07
3.42971e-08
-6.08904e-07
4.08028e-08
-6.47771e-07
3.86588e-08
-6.81011e-07
3.31519e-08
-7.18977e-07
3.78254e-08
-7.57927e-07
3.89396e-08
-7.90387e-07
3.24321e-08
-8.31974e-07
4.16165e-08
-8.84531e-07
5.25739e-08
-9.38543e-07
5.40432e-08
-9.83078e-07
4.45564e-08
-1.01806e-06
3.50053e-08
-1.05773e-06
3.96761e-08
-1.09962e-06
4.19027e-08
-1.14263e-06
4.30172e-08
-1.1863e-06
4.36735e-08
-1.23025e-06
4.39438e-08
-1.27425e-06
4.40039e-08
-1.31819e-06
4.39434e-08
-1.362e-06
4.38096e-08
-1.40563e-06
4.3626e-08
-1.44904e-06
4.3408e-08
-1.49221e-06
4.31636e-08
-1.53511e-06
4.28981e-08
-1.57772e-06
4.26137e-08
-1.62004e-06
4.23115e-08
-1.66204e-06
4.1991e-08
-1.70369e-06
4.16516e-08
-1.74499e-06
4.12915e-08
-1.7859e-06
4.09093e-08
-1.82641e-06
4.05029e-08
-1.86649e-06
4.00705e-08
-1.9061e-06
3.96098e-08
-1.94522e-06
3.91191e-08
-1.98382e-06
3.85962e-08
-2.02187e-06
3.80397e-08
-2.05932e-06
3.74476e-08
-2.09614e-06
3.68189e-08
-2.1323e-06
3.61519e-08
-2.16775e-06
3.54458e-08
-2.20245e-06
3.46993e-08
-2.23637e-06
3.3912e-08
-2.26946e-06
3.30827e-08
-2.30167e-06
3.22116e-08
-2.33298e-06
3.12977e-08
-2.36332e-06
3.03416e-08
-2.39267e-06
2.93428e-08
-2.42098e-06
2.83023e-08
-2.44821e-06
2.72192e-08
-2.47431e-06
2.60948e-08
-2.49924e-06
2.49288e-08
-2.52297e-06
2.37225e-08
-2.54545e-06
2.24752e-08
-2.56664e-06
2.11884e-08
-2.58651e-06
1.98614e-08
-2.60501e-06
1.84958e-08
-2.6221e-06
1.70901e-08
-2.63775e-06
1.56441e-08
-2.6519e-06
1.4155e-08
-2.66451e-06
1.2618e-08
-2.67554e-06
1.10278e-08
-2.68492e-06
9.37897e-09
-2.69259e-06
7.66381e-09
-2.69846e-06
5.86887e-09
-2.70244e-06
3.97568e-09
-2.70442e-06
1.98158e-09
-2.70439e-06
-3.39774e-11
-2.70254e-06
-1.85804e-09
-2.69906e-06
-3.48575e-09
-2.694e-06
-5.07308e-09
-2.68736e-06
-6.64904e-09
-2.67914e-06
-8.22719e-09
-2.66935e-06
-9.81009e-09
-2.65797e-06
-1.13961e-08
-2.645e-06
-1.2985e-08
-2.63044e-06
-1.45735e-08
-2.6143e-06
-1.61613e-08
-2.59656e-06
-1.77452e-08
-2.57725e-06
-1.93251e-08
-2.55637e-06
-2.08975e-08
-2.53391e-06
-2.24627e-08
-2.50991e-06
-2.40166e-08
-2.48436e-06
-2.55598e-08
-2.45727e-06
-2.70881e-08
-2.42868e-06
-2.86022e-08
-2.39858e-06
-3.00974e-08
-2.36701e-06
-3.15742e-08
-2.33398e-06
-3.30287e-08
-2.29951e-06
-3.44618e-08
-2.26364e-06
-3.58709e-08
-2.2264e-06
-3.72563e-08
-2.1878e-06
-3.86128e-08
-2.14787e-06
-3.99404e-08
-2.10665e-06
-4.12335e-08
-2.06416e-06
-4.24943e-08
-2.02044e-06
-4.3719e-08
-1.97553e-06
-4.49109e-08
-1.92946e-06
-4.60649e-08
-1.88227e-06
-4.71836e-08
-1.83399e-06
-4.82638e-08
-1.78467e-06
-4.93044e-08
-1.73435e-06
-5.02956e-08
-1.68308e-06
-5.12455e-08
-1.63089e-06
-5.2153e-08
-1.57784e-06
-5.30171e-08
-1.52396e-06
-5.3832e-08
-1.46931e-06
-5.46001e-08
-1.41393e-06
-5.53196e-08
-1.35788e-06
-5.59914e-08
-1.30121e-06
-5.66153e-08
-1.24396e-06
-5.7191e-08
-1.18619e-06
-5.77196e-08
-1.12794e-06
-5.82e-08
-1.06927e-06
-5.86336e-08
-1.01021e-06
-5.90189e-08
-9.50817e-07
-5.93578e-08
-8.91139e-07
-5.96493e-08
-8.31221e-07
-5.98958e-08
-7.71107e-07
-6.00963e-08
-7.10843e-07
-6.02536e-08
-6.5047e-07
-6.03668e-08
-5.90031e-07
-6.04389e-08
-5.29567e-07
-6.04691e-08
-4.69117e-07
-6.04601e-08
-4.08721e-07
-6.04114e-08
-3.48417e-07
-6.03254e-08
-2.8824e-07
-6.02008e-08
-2.28229e-07
-6.00399e-08
-1.6842e-07
-5.98416e-08
-1.08842e-07
-5.96141e-08
-4.95395e-08
-5.93411e-08
9.3953e-09
-5.89759e-08
6.79987e-08
-5.86446e-08
1.26265e-07
-5.83091e-08
1.84095e-07
-5.78714e-08
2.4149e-07
-5.74385e-08
2.9846e-07
-5.70136e-08
3.55006e-07
-5.65905e-08
4.11118e-07
-5.61569e-08
4.66768e-07
-5.56961e-08
5.21903e-07
-5.51823e-08
5.76427e-07
-5.45727e-08
6.30168e-07
-5.37912e-08
6.82811e-07
-5.26934e-08
7.33736e-07
-5.09776e-08
7.81631e-07
-4.79467e-08
8.23329e-07
-4.17488e-08
8.50695e-07
-2.74135e-08
1.77614e-08
8.32895e-07
9.01089e-09
-1.98826e-08
1.22869e-08
-1.65721e-08
1.08566e-08
-8.24771e-09
6.22062e-09
2.81321e-11
-9.29552e-10
7.74812e-09
-1.03945e-08
1.46677e-08
-2.21288e-08
2.06236e-08
-3.60577e-08
2.55795e-08
-5.19961e-08
2.96342e-08
-6.96983e-08
3.29696e-08
-8.89146e-08
3.57838e-08
-1.0949e-07
3.82445e-08
-1.31281e-07
4.04782e-08
-1.54209e-07
4.25675e-08
-1.78202e-07
4.45638e-08
-2.03233e-07
4.64943e-08
-2.29269e-07
4.8375e-08
-2.56303e-07
5.02122e-08
-2.84325e-07
5.20093e-08
-3.13337e-07
5.3767e-08
-3.43361e-07
5.54862e-08
-3.744e-07
5.7171e-08
-4.06528e-07
5.88287e-08
-4.39754e-07
6.04776e-08
-4.74226e-07
6.21436e-08
-5.10016e-07
6.38668e-08
-5.47388e-07
6.57079e-08
-5.86405e-07
6.77673e-08
-6.27363e-07
7.0123e-08
-6.70424e-07
7.28256e-08
-7.15359e-07
7.5925e-08
-7.60493e-07
7.93369e-08
-8.02056e-07
8.22771e-08
-8.45949e-07
8.24439e-08
-8.9393e-07
8.10752e-08
-9.37703e-07
8.15438e-08
-9.80638e-07
8.18678e-08
-1.03023e-06
8.2019e-08
-1.0741e-06
8.55071e-08
-1.11194e-06
9.04253e-08
-1.14915e-06
9.12717e-08
-1.19297e-06
8.83865e-08
-1.24291e-06
8.49609e-08
-1.28776e-06
8.45311e-08
-1.33032e-06
8.44711e-08
-1.37167e-06
8.43629e-08
-1.41217e-06
8.41773e-08
-1.4521e-06
8.38818e-08
-1.49158e-06
8.34846e-08
-1.53065e-06
8.30127e-08
-1.56933e-06
8.24861e-08
-1.60762e-06
8.19178e-08
-1.64553e-06
8.13158e-08
-1.68305e-06
8.06842e-08
-1.72018e-06
8.00247e-08
-1.75691e-06
7.93371e-08
-1.79322e-06
7.86197e-08
-1.8291e-06
7.78701e-08
-1.86454e-06
7.70852e-08
-1.89951e-06
7.62615e-08
-1.934e-06
7.53955e-08
-1.96798e-06
7.44833e-08
-2.00144e-06
7.35214e-08
-2.03434e-06
7.25061e-08
-2.06666e-06
7.14341e-08
-2.09837e-06
7.03021e-08
-2.12944e-06
6.91074e-08
-2.15984e-06
6.78473e-08
-2.18954e-06
6.65194e-08
-2.21852e-06
6.51218e-08
-2.24672e-06
6.36526e-08
-2.27414e-06
6.21105e-08
-2.30072e-06
6.04943e-08
-2.32645e-06
5.88029e-08
-2.35127e-06
5.70361e-08
-2.37517e-06
5.51932e-08
-2.39811e-06
5.32745e-08
-2.42005e-06
5.12802e-08
-2.44096e-06
4.92107e-08
-2.46081e-06
4.70663e-08
-2.47957e-06
4.48482e-08
-2.4972e-06
4.25569e-08
-2.51368e-06
4.01938e-08
-2.52897e-06
3.77594e-08
-2.54304e-06
3.52553e-08
-2.55586e-06
3.26823e-08
-2.56741e-06
3.00421e-08
-2.57766e-06
2.73352e-08
-2.58657e-06
2.45626e-08
-2.59414e-06
2.1724e-08
-2.60034e-06
1.8819e-08
-2.60516e-06
1.58484e-08
-2.6086e-06
1.28147e-08
-2.61066e-06
9.72138e-09
-2.61137e-06
6.57491e-09
-2.61079e-06
3.39339e-09
-2.60903e-06
2.17747e-10
-2.60616e-06
-2.90161e-09
-2.60204e-06
-5.98208e-09
-2.59646e-06
-9.07013e-09
-2.58937e-06
-1.21709e-08
-2.58074e-06
-1.52831e-08
-2.57057e-06
-1.84088e-08
-2.55885e-06
-2.15459e-08
-2.54556e-06
-2.46914e-08
-2.53072e-06
-2.78417e-08
-2.51431e-06
-3.09931e-08
-2.49634e-06
-3.41419e-08
-2.47681e-06
-3.72847e-08
-2.45573e-06
-4.04181e-08
-2.43309e-06
-4.35383e-08
-2.40892e-06
-4.66422e-08
-2.38322e-06
-4.97257e-08
-2.356e-06
-5.27859e-08
-2.32727e-06
-5.58187e-08
-2.29705e-06
-5.88209e-08
-2.26537e-06
-6.17883e-08
-2.23222e-06
-6.47172e-08
-2.19765e-06
-6.76042e-08
-2.16166e-06
-7.04471e-08
-2.12429e-06
-7.32432e-08
-2.08556e-06
-7.59895e-08
-2.04551e-06
-7.86805e-08
-2.00414e-06
-8.13121e-08
-1.96151e-06
-8.38789e-08
-1.91763e-06
-8.63793e-08
-1.87254e-06
-8.88101e-08
-1.82628e-06
-9.11718e-08
-1.77888e-06
-9.34613e-08
-1.73038e-06
-9.5679e-08
-1.68081e-06
-9.78213e-08
-1.63022e-06
-9.98817e-08
-1.57866e-06
-1.0185e-07
-1.52615e-06
-1.03733e-07
-1.47276e-06
-1.05533e-07
-1.41851e-06
-1.07244e-07
-1.36346e-06
-1.08859e-07
-1.30765e-06
-1.1038e-07
-1.25113e-06
-1.11804e-07
-1.19396e-06
-1.13133e-07
-1.13617e-06
-1.14366e-07
-1.07783e-06
-1.15503e-07
-1.01898e-06
-1.16544e-07
-9.59666e-07
-1.1749e-07
-8.99937e-07
-1.18341e-07
-8.39841e-07
-1.19096e-07
-7.79425e-07
-1.19757e-07
-7.18736e-07
-1.20325e-07
-6.5782e-07
-1.20801e-07
-5.96722e-07
-1.21187e-07
-5.35487e-07
-1.21483e-07
-4.74158e-07
-1.21694e-07
-4.12778e-07
-1.2182e-07
-3.51387e-07
-1.21864e-07
-2.90026e-07
-1.21827e-07
-2.28733e-07
-1.21714e-07
-1.67545e-07
-1.21524e-07
-1.06499e-07
-1.2126e-07
-4.56277e-08
-1.20926e-07
1.50393e-08
-1.20526e-07
7.54752e-08
-1.20067e-07
1.35657e-07
-1.19543e-07
1.95586e-07
-1.18923e-07
2.55151e-07
-1.18231e-07
3.1429e-07
-1.17468e-07
3.73048e-07
-1.16651e-07
4.31418e-07
-1.15831e-07
4.89395e-07
-1.15014e-07
5.46971e-07
-1.1419e-07
6.04127e-07
-1.13338e-07
6.60831e-07
-1.12426e-07
7.17026e-07
-1.11405e-07
7.72614e-07
-1.10189e-07
8.27425e-07
-1.08632e-07
8.81152e-07
-1.06452e-07
9.33257e-07
-1.03114e-07
9.82671e-07
-9.73934e-08
1.02772e-06
-8.68263e-08
1.06502e-06
-6.47535e-08
-1.2295e-08
1.09505e-06
5.06044e-10
-2.03854e-08
-5.16025e-09
-1.09044e-08
-1.35177e-08
1.13765e-10
-2.35848e-08
1.00959e-08
-3.50082e-08
1.91752e-08
-4.77287e-08
2.73894e-08
-6.18129e-08
3.47113e-08
-7.73638e-08
4.11318e-08
-9.44311e-08
4.67049e-08
-1.13005e-07
5.15448e-08
-1.33017e-07
5.57979e-08
-1.54382e-07
5.96104e-08
-1.7701e-07
6.31086e-08
-2.00832e-07
6.63892e-08
-2.25789e-07
6.95219e-08
-2.5185e-07
7.25531e-08
-2.78991e-07
7.55141e-08
-3.07208e-07
7.84244e-08
-3.36501e-07
8.12982e-08
-3.66881e-07
8.41447e-08
-3.98373e-07
8.69728e-08
-4.3099e-07
8.97923e-08
-4.64778e-07
9.26158e-08
-4.9974e-07
9.54601e-08
-5.35939e-07
9.83456e-08
-5.73334e-07
1.01295e-07
-6.11948e-07
1.04326e-07
-6.51606e-07
1.07448e-07
-6.92125e-07
1.1063e-07
-7.33114e-07
1.13795e-07
-7.74042e-07
1.16813e-07
-8.14223e-07
1.19459e-07
-8.53339e-07
1.21344e-07
-8.9303e-07
1.2208e-07
-9.33987e-07
1.22006e-07
-9.74558e-07
1.22094e-07
-1.01505e-06
1.22363e-07
-1.05599e-06
1.22961e-07
-1.09479e-06
1.24317e-07
-1.13015e-06
1.25798e-07
-1.16471e-06
1.25842e-07
-1.201e-06
1.24681e-07
-1.23914e-06
1.23107e-07
-1.2766e-06
1.22e-07
-1.31325e-06
1.21122e-07
-1.34925e-06
1.20367e-07
-1.38473e-06
1.19657e-07
-1.41979e-06
1.1894e-07
-1.4545e-06
1.18193e-07
-1.4889e-06
1.17413e-07
-1.52301e-06
1.16599e-07
-1.55684e-06
1.15753e-07
-1.5904e-06
1.14875e-07
-1.62369e-06
1.13964e-07
-1.65668e-06
1.13016e-07
-1.68937e-06
1.1203e-07
-1.72175e-06
1.11e-07
-1.75381e-06
1.09922e-07
-1.78552e-06
1.08791e-07
-1.81686e-06
1.07601e-07
-1.84781e-06
1.06347e-07
-1.87835e-06
1.05025e-07
-1.90846e-06
1.03628e-07
-1.93811e-06
1.02152e-07
-1.96727e-06
1.00592e-07
-1.99592e-06
9.89439e-08
-2.02401e-06
9.72039e-08
-2.05154e-06
9.53682e-08
-2.07845e-06
9.34337e-08
-2.10473e-06
9.13976e-08
-2.13034e-06
8.92576e-08
-2.15524e-06
8.70117e-08
-2.17941e-06
8.46581e-08
-2.2028e-06
8.2196e-08
-2.22539e-06
7.96243e-08
-2.24714e-06
7.69427e-08
-2.26802e-06
7.41514e-08
-2.288e-06
7.12506e-08
-2.30703e-06
6.8241e-08
-2.32509e-06
6.51234e-08
-2.34214e-06
6.18992e-08
-2.35816e-06
5.85697e-08
-2.3731e-06
5.51366e-08
-2.38695e-06
5.16018e-08
-2.39966e-06
4.79676e-08
-2.41122e-06
4.42362e-08
-2.42159e-06
4.04102e-08
-2.43075e-06
3.64924e-08
-2.43867e-06
3.24858e-08
-2.44534e-06
2.83933e-08
-2.45074e-06
2.42183e-08
-2.45485e-06
1.99658e-08
-2.45768e-06
1.56434e-08
-2.45923e-06
1.12602e-08
-2.45948e-06
6.82864e-09
-2.45846e-06
2.36668e-09
-2.45614e-06
-2.10277e-09
-2.45247e-06
-6.57029e-09
-2.4474e-06
-1.10592e-08
-2.44088e-06
-1.55895e-08
-2.4329e-06
-2.0156e-08
-2.42344e-06
-2.47524e-08
-2.41248e-06
-2.93739e-08
-2.40002e-06
-3.40147e-08
-2.38606e-06
-3.86697e-08
-2.37057e-06
-4.33323e-08
-2.35358e-06
-4.79976e-08
-2.33507e-06
-5.26596e-08
-2.31504e-06
-5.73134e-08
-2.29352e-06
-6.19531e-08
-2.27049e-06
-6.65742e-08
-2.24596e-06
-7.11708e-08
-2.21995e-06
-7.5738e-08
-2.19247e-06
-8.02702e-08
-2.16353e-06
-8.47627e-08
-2.13315e-06
-8.92094e-08
-2.10133e-06
-9.36053e-08
-2.0681e-06
-9.79446e-08
-2.03348e-06
-1.02223e-07
-1.9975e-06
-1.06435e-07
-1.96016e-06
-1.10579e-07
-1.92151e-06
-1.14647e-07
-1.88157e-06
-1.18634e-07
-1.84035e-06
-1.22533e-07
-1.7979e-06
-1.26337e-07
-1.75424e-06
-1.30043e-07
-1.70941e-06
-1.33646e-07
-1.66344e-06
-1.37145e-07
-1.61636e-06
-1.40538e-07
-1.56821e-06
-1.43824e-07
-1.51903e-06
-1.46997e-07
-1.46886e-06
-1.50048e-07
-1.41774e-06
-1.52968e-07
-1.3657e-06
-1.5576e-07
-1.3128e-06
-1.58426e-07
-1.25907e-06
-1.60959e-07
-1.20456e-06
-1.63352e-07
-1.14932e-06
-1.65603e-07
-1.09339e-06
-1.67712e-07
-1.03682e-06
-1.69679e-07
-9.79669e-07
-1.71502e-07
-9.21974e-07
-1.73183e-07
-8.63784e-07
-1.7472e-07
-8.05148e-07
-1.76115e-07
-7.46113e-07
-1.77366e-07
-6.86724e-07
-1.78476e-07
-6.27029e-07
-1.79445e-07
-5.67074e-07
-1.80274e-07
-5.06904e-07
-1.80967e-07
-4.46564e-07
-1.81524e-07
-3.86097e-07
-1.81949e-07
-3.25547e-07
-1.82244e-07
-2.64954e-07
-1.82413e-07
-2.04359e-07
-1.8246e-07
-1.43802e-07
-1.82387e-07
-8.33199e-08
-1.82198e-07
-2.29465e-08
-1.819e-07
3.72844e-08
-1.81495e-07
9.73373e-08
-1.80983e-07
1.5718e-07
-1.80372e-07
2.1678e-07
-1.79671e-07
2.76114e-07
-1.7888e-07
3.35178e-07
-1.77991e-07
3.93942e-07
-1.76999e-07
4.52379e-07
-1.75909e-07
5.10482e-07
-1.74757e-07
5.6823e-07
-1.73583e-07
6.25609e-07
-1.72397e-07
6.82602e-07
-1.71186e-07
7.39187e-07
-1.69926e-07
7.9533e-07
-1.68573e-07
8.50974e-07
-1.67053e-07
9.06027e-07
-1.65246e-07
9.6033e-07
-1.6294e-07
1.01362e-06
-1.59751e-07
1.06547e-06
-1.54969e-07
1.11521e-06
-1.47134e-07
1.16192e-06
-1.3354e-07
1.20517e-06
-1.08011e-07
-5.67521e-08
1.24962e-06
-7.40209e-09
-1.29807e-08
-1.90336e-08
7.27402e-10
-3.20116e-08
1.30939e-08
-4.58093e-08
2.38938e-08
-6.03249e-08
3.36924e-08
-7.56021e-08
4.26667e-08
-9.17475e-08
5.08583e-08
-1.08895e-07
5.82794e-08
-1.27154e-07
6.49653e-08
-1.46596e-07
7.09873e-08
-1.67243e-07
7.64458e-08
-1.89083e-07
8.14512e-08
-2.12084e-07
8.61099e-08
-2.36207e-07
9.05125e-08
-2.61418e-07
9.47313e-08
-2.87686e-07
9.88195e-08
-3.14991e-07
1.02816e-07
-3.43316e-07
1.06746e-07
-3.72651e-07
1.10627e-07
-4.02982e-07
1.1447e-07
-4.34297e-07
1.1828e-07
-4.66566e-07
1.22059e-07
-4.99766e-07
1.25808e-07
-5.33817e-07
1.2952e-07
-5.68661e-07
1.33187e-07
-6.04142e-07
1.36794e-07
-6.4013e-07
1.40313e-07
-6.76379e-07
1.43705e-07
-7.12668e-07
1.46907e-07
-7.48728e-07
1.49837e-07
-7.8433e-07
1.52389e-07
-8.19357e-07
1.54447e-07
-8.53928e-07
1.55889e-07
-8.88544e-07
1.56668e-07
-9.2349e-07
1.56942e-07
-9.58464e-07
1.57064e-07
-9.93289e-07
1.57194e-07
-1.02773e-06
1.57414e-07
-1.06114e-06
1.57733e-07
-1.09323e-06
1.57899e-07
-1.12489e-06
1.57509e-07
-1.15683e-06
1.56623e-07
-1.18921e-06
1.55485e-07
-1.22156e-06
1.5436e-07
-1.25374e-06
1.53297e-07
-1.28566e-06
1.52294e-07
-1.31733e-06
1.5133e-07
-1.34877e-06
1.50375e-07
-1.37999e-06
1.49413e-07
-1.41101e-06
1.48431e-07
-1.44183e-06
1.47424e-07
-1.47246e-06
1.46386e-07
-1.5029e-06
1.45312e-07
-1.53313e-06
1.44197e-07
-1.56315e-06
1.43036e-07
-1.59295e-06
1.41821e-07
-1.6225e-06
1.40547e-07
-1.65178e-06
1.39208e-07
-1.68079e-06
1.37795e-07
-1.70949e-06
1.36304e-07
-1.73787e-06
1.34725e-07
-1.7659e-06
1.33053e-07
-1.79356e-06
1.31282e-07
-1.82082e-06
1.29405e-07
-1.84764e-06
1.27416e-07
-1.87401e-06
1.2531e-07
-1.89989e-06
1.23083e-07
-1.92525e-06
1.20728e-07
-1.95006e-06
1.18244e-07
-1.97429e-06
1.15625e-07
-1.99791e-06
1.1287e-07
-2.02087e-06
1.09976e-07
-2.04316e-06
1.06941e-07
-2.06473e-06
1.03763e-07
-2.08554e-06
1.00441e-07
-2.10558e-06
9.69758e-08
-2.1248e-06
9.33667e-08
-2.14316e-06
8.96142e-08
-2.16064e-06
8.57193e-08
-2.1772e-06
8.16833e-08
-2.19281e-06
7.75081e-08
-2.20744e-06
7.31956e-08
-2.22105e-06
6.87483e-08
-2.23362e-06
6.41691e-08
-2.24512e-06
5.94612e-08
-2.25551e-06
5.46281e-08
-2.26478e-06
4.96738e-08
-2.27289e-06
4.46029e-08
-2.27982e-06
3.942e-08
-2.28556e-06
3.41303e-08
-2.29008e-06
2.87399e-08
-2.29337e-06
2.3256e-08
-2.29542e-06
1.76876e-08
-2.2962e-06
1.20451e-08
-2.29572e-06
6.34033e-09
-2.29394e-06
5.86303e-10
-2.29084e-06
-5.20587e-09
-2.28638e-06
-1.10356e-08
-2.28053e-06
-1.6915e-08
-2.27327e-06
-2.28509e-08
-2.26459e-06
-2.88375e-08
-2.25448e-06
-3.4867e-08
-2.24293e-06
-4.09317e-08
-2.22993e-06
-4.70234e-08
-2.21547e-06
-5.31344e-08
-2.19956e-06
-5.92565e-08
-2.18218e-06
-6.53828e-08
-2.16334e-06
-7.15054e-08
-2.14304e-06
-7.76178e-08
-2.12129e-06
-8.37122e-08
-2.09808e-06
-8.97824e-08
-2.07344e-06
-9.58207e-08
-2.04736e-06
-1.01821e-07
-2.01986e-06
-1.07775e-07
-1.99094e-06
-1.13677e-07
-1.96064e-06
-1.1952e-07
-1.92895e-06
-1.25296e-07