/*--------------------------------*- C++ -*----------------------------------*\
  =========                 |
  \\      /  F ield         | OpenFOAM: The Open Source CFD Toolbox
   \\    /   O peration     | Website:  https://openfoam.org
    \\  /    A nd           | Version:  7
     \\/     M anipulation  |
\*---------------------------------------------------------------------------*/
FoamFile
{
    version     2.0;
    format      ascii;
    class       volVectorField;
    location    "288";
    object      U;
}
// * * * * * * * * * * * * * * * * * * * * * * * * * * * * * * * * * * * * * //

dimensions      [0 1 -1 0 0 0 0];

internalField   nonuniform List<vector> 
12225
(
(9.85698 -0.886449 0)
(9.66665 -0.740747 0)
(9.45574 -0.429483 0)
(9.22457 -0.222216 0)
(9.00656 -0.106462 0)
(8.81447 -0.0458767 0)
(8.64764 -0.0151809 0)
(8.50548 0.000439216 0)
(8.38389 0.00837072 0)
(8.28119 0.0122615 0)
(8.1929 0.0139568 0)
(8.11682 0.0149821 0)
(8.05028 0.0153165 0)
(7.99145 0.0155405 0)
(7.9388 0.0153657 0)
(7.89276 0.0160305 0)
(7.84039 0.0191797 0)
(7.83142 0.00952452 0)
(10.0545 0.227568 0)
(10.1211 0.326911 0)
(10.1196 0.261569 0)
(10.0856 0.186537 0)
(10.0435 0.134661 0)
(9.99677 0.101105 0)
(9.94407 0.0792702 0)
(9.88536 0.0645477 0)
(9.82404 0.0542356 0)
(9.76157 0.0466398 0)
(9.70016 0.0408645 0)
(9.64043 0.0362908 0)
(9.58321 0.0326151 0)
(9.52899 0.0296996 0)
(9.47726 0.0271672 0)
(9.42997 0.0258004 0)
(9.38248 0.0223187 0)
(9.34718 0.0311434 0)
(10.0035 0.0579181 0)
(10.0303 0.0560062 0)
(10.0561 0.0337766 0)
(10.0704 0.0328901 0)
(10.077 0.0406361 0)
(10.0779 0.0465289 0)
(10.0726 0.0493387 0)
(10.0615 0.0502776 0)
(10.0463 0.0501671 0)
(10.0279 0.0494429 0)
(10.0074 0.0483842 0)
(9.98532 0.0472007 0)
(9.96228 0.0459818 0)
(9.93877 0.0448623 0)
(9.915 0.043704 0)
(9.89178 0.0431587 0)
(9.86878 0.04206 0)
(9.84704 0.0432902 0)
(9.99779 0.0110531 0)
(10.011 0.0266067 0)
(10.035 0.0371465 0)
(10.0525 0.0480778 0)
(10.0644 0.0554398 0)
(10.0735 0.0581668 0)
(10.0796 0.0583297 0)
(10.0825 0.0575796 0)
(10.0829 0.0565201 0)
(10.0814 0.055311 0)
(10.0784 0.0540201 0)
(10.0741 0.0527657 0)
(10.0688 0.0515354 0)
(10.0628 0.050429 0)
(10.0561 0.0493253 0)
(10.0493 0.0486171 0)
(10.0424 0.0476603 0)
(10.0355 0.0473846 0)
(9.99935 0.00719723 0)
(10.009 0.031652 0)
(10.0275 0.0439163 0)
(10.0418 0.0499124 0)
(10.0528 0.0535956 0)
(10.0629 0.0552136 0)
(10.0717 0.0554852 0)
(10.0784 0.0551855 0)
(10.0836 0.0546295 0)
(10.0875 0.0539093 0)
(10.0903 0.053078 0)
(10.0923 0.052229 0)
(10.0935 0.0513724 0)
(10.0942 0.0505766 0)
(10.0945 0.0497836 0)
(10.0945 0.04918 0)
(10.0945 0.0484503 0)
(10.0944 0.0478468 0)
(10.0003 0.00917704 0)
(10.0083 0.031166 0)
(10.0227 0.0409355 0)
(10.035 0.0453792 0)
(10.0451 0.0490172 0)
(10.0548 0.0513441 0)
(10.0638 0.0523151 0)
(10.0715 0.0525361 0)
(10.078 0.0523866 0)
(10.0836 0.0520035 0)
(10.0885 0.0514614 0)
(10.0927 0.0508456 0)
(10.0964 0.0501873 0)
(10.0997 0.0495338 0)
(10.1026 0.0488627 0)
(10.1054 0.0482486 0)
(10.1081 0.0475388 0)
(10.1107 0.0467241 0)
(10.0005 0.00894296 0)
(10.0071 0.0270799 0)
(10.0191 0.0364022 0)
(10.0302 0.041373 0)
(10.0396 0.0453882 0)
(10.0487 0.0480435 0)
(10.0573 0.0493003 0)
(10.065 0.0497548 0)
(10.0718 0.0498088 0)
(10.078 0.0496073 0)
(10.0835 0.0492266 0)
(10.0886 0.0487414 0)
(10.0933 0.0481915 0)
(10.0976 0.0476091 0)
(10.1017 0.0469873 0)
(10.1056 0.0463461 0)
(10.1094 0.0456004 0)
(10.1131 0.044677 0)
(10.0004 0.00791362 0)
(10.006 0.023372 0)
(10.0161 0.0327218 0)
(10.0263 0.0380798 0)
(10.0352 0.042065 0)
(10.0436 0.0447361 0)
(10.0518 0.0461324 0)
(10.0593 0.0467478 0)
(10.0661 0.046947 0)
(10.0723 0.0468737 0)
(10.0781 0.046605 0)
(10.0834 0.0462086 0)
(10.0885 0.0457271 0)
(10.0932 0.0451847 0)
(10.0977 0.0445803 0)
(10.1021 0.0439099 0)
(10.1064 0.0431194 0)
(10.1105 0.0421403 0)
(10.0004 0.00695741 0)
(10.0051 0.0204181 0)
(10.0137 0.0294374 0)
(10.0229 0.0348358 0)
(10.0312 0.0386753 0)
(10.0392 0.0413231 0)
(10.0469 0.0428381 0)
(10.0541 0.0435908 0)
(10.0607 0.0439042 0)
(10.0669 0.0439272 0)
(10.0727 0.0437394 0)
(10.0781 0.0434043 0)
(10.0833 0.0429645 0)
(10.0882 0.0424411 0)
(10.0929 0.0418351 0)
(10.0974 0.0411357 0)
(10.1018 0.0403052 0)
(10.1061 0.0392983 0)
(10.0004 0.00612602 0)
(10.0043 0.017851 0)
(10.0116 0.026257 0)
(10.0199 0.0315522 0)
(10.0277 0.0352642 0)
(10.0352 0.0378746 0)
(10.0425 0.0394672 0)
(10.0494 0.0403208 0)
(10.0558 0.0407187 0)
(10.0618 0.0408127 0)
(10.0675 0.0406836 0)
(10.0729 0.0403913 0)
(10.0781 0.0399768 0)
(10.083 0.0394607 0)
(10.0877 0.0388459 0)
(10.0923 0.0381227 0)
(10.0966 0.037265 0)
(10.1009 0.036251 0)
(10.0003 0.00536552 0)
(10.0037 0.0155399 0)
(10.0099 0.0232163 0)
(10.0173 0.0283128 0)
(10.0245 0.0318813 0)
(10.0315 0.0344136 0)
(10.0384 0.0360295 0)
(10.045 0.0369453 0)
(10.0513 0.037402 0)
(10.0571 0.0375468 0)
(10.0627 0.0374601 0)
(10.068 0.037198 0)
(10.0731 0.0367999 0)
(10.0779 0.0362867 0)
(10.0826 0.0356641 0)
(10.0871 0.0349261 0)
(10.0914 0.0340566 0)
(10.0956 0.0330523 0)
(10.0003 0.0046998 0)
(10.0032 0.0135972 0)
(10.0086 0.0205674 0)
(10.0152 0.0253976 0)
(10.0219 0.028799 0)
(10.0286 0.0312245 0)
(10.0351 0.03282 0)
(10.0414 0.0337609 0)
(10.0474 0.0342499 0)
(10.0531 0.0344249 0)
(10.0586 0.0343643 0)
(10.0638 0.0341214 0)
(10.0688 0.0337337 0)
(10.0735 0.0332228 0)
(10.0781 0.0325969 0)
(10.0825 0.031855 0)
(10.0867 0.030988 0)
(10.0907 0.0300064 0)
(10.0003 0.00408447 0)
(10.0028 0.0118264 0)
(10.0075 0.0180658 0)
(10.0134 0.0225536 0)
(10.0197 0.0257535 0)
(10.0259 0.0280468 0)
(10.0321 0.0295895 0)
(10.0381 0.0305285 0)
(10.0439 0.0310318 0)
(10.0495 0.0312238 0)
(10.0548 0.0311802 0)
(10.0598 0.030951 0)
(10.0647 0.0305721 0)
(10.0694 0.0300656 0)
(10.0738 0.0294421 0)
(10.0781 0.0287055 0)
(10.0822 0.0278521 0)
(10.0861 0.0269028 0)
(10.0002 0.00344886 0)
(10.0024 0.00998599 0)
(10.0064 0.0153826 0)
(10.0117 0.019403 0)
(10.0174 0.0223178 0)
(10.0232 0.0244193 0)
(10.029 0.0258586 0)
(10.0348 0.0267583 0)
(10.0403 0.0272514 0)
(10.0457 0.0274445 0)
(10.0508 0.0274076 0)
(10.0557 0.027187 0)
(10.0604 0.0268164 0)
(10.065 0.0263176 0)
(10.0693 0.0257041 0)
(10.0734 0.0249837 0)
(10.0774 0.024158 0)
(10.0811 0.0232546 0)
(10.0002 0.00278894 0)
(10.002 0.00807452 0)
(10.0055 0.0125282 0)
(10.0101 0.0159514 0)
(10.0153 0.0184793 0)
(10.0206 0.0203138 0)
(10.0261 0.0215859 0)
(10.0314 0.0223951 0)
(10.0367 0.0228419 0)
(10.0418 0.0230121 0)
(10.0468 0.0229664 0)
(10.0515 0.0227465 0)
(10.0561 0.0223823 0)
(10.0604 0.0218957 0)
(10.0646 0.0213012 0)
(10.0686 0.0206101 0)
(10.0724 0.0198278 0)
(10.076 0.0189854 0)
(10.0002 0.00210409 0)
(10.0017 0.00609426 0)
(10.0047 0.00951127 0)
(10.0088 0.012204 0)
(10.0134 0.0142262 0)
(10.0183 0.0157014 0)
(10.0233 0.0167279 0)
(10.0283 0.0173814 0)
(10.0333 0.017733 0)
(10.0382 0.0178462 0)
(10.0429 0.0177695 0)
(10.0475 0.0175375 0)
(10.0518 0.0171761 0)
(10.056 0.0167047 0)
(10.06 0.0161384 0)
(10.0639 0.0154895 0)
(10.0675 0.0147655 0)
(10.071 0.0139978 0)
(10.0002 0.00139143 0)
(10.0015 0.00403145 0)
(10.0041 0.00631616 0)
(10.0076 0.00814455 0)
(10.0118 0.00953074 0)
(10.0163 0.0105389 0)
(10.0209 0.0112294 0)
(10.0256 0.0116508 0)
(10.0303 0.0118482 0)
(10.0349 0.0118623 0)
(10.0394 0.0117264 0)
(10.0438 0.0114659 0)
(10.048 0.0111003 0)
(10.052 0.0106453 0)
(10.0558 0.010114 0)
(10.0595 0.00951769 0)
(10.063 0.00886394 0)
(10.0663 0.00818155 0)
(10.0001 0.000634678 0)
(10.0013 0.00183457 0)
(10.0036 0.0028711 0)
(10.0068 0.00369347 0)
(10.0107 0.00430312 0)
(10.0148 0.00472245 0)
(10.0192 0.00497421 0)
(10.0236 0.00507828 0)
(10.0281 0.00505409 0)
(10.0325 0.00492004 0)
(10.0368 0.00469192 0)
(10.0409 0.00438266 0)
(10.0449 0.00400324 0)
(10.0488 0.00356322 0)
(10.0525 0.0030712 0)
(10.056 0.00253555 0)
(10.0593 0.0019616 0)
(10.0625 0.00137345 0)
(10.0001 -0.000209169 0)
(10.0012 -0.000618093 0)
(10.0034 -0.000996645 0)
(10.0065 -0.00134092 0)
(10.0102 -0.00164917 0)
(10.0143 -0.00193533 0)
(10.0185 -0.00221724 0)
(10.0228 -0.00250694 0)
(10.0271 -0.00281156 0)
(10.0313 -0.00313649 0)
(10.0355 -0.00348575 0)
(10.0395 -0.00386139 0)
(10.0434 -0.00426365 0)
(10.0471 -0.00469151 0)
(10.0507 -0.00514298 0)
(10.0541 -0.00561501 0)
(10.0573 -0.00610597 0)
(10.0603 -0.00659871 0)
(10.0001 -0.00101613 0)
(10.0013 -0.00297063 0)
(10.0037 -0.00471323 0)
(10.007 -0.00616924 0)
(10.0108 -0.00733427 0)
(10.015 -0.008268 0)
(10.0193 -0.00903181 0)
(10.0237 -0.00966748 0)
(10.028 -0.0102092 0)
(10.0323 -0.0106881 0)
(10.0364 -0.0111288 0)
(10.0404 -0.0115476 0)
(10.0442 -0.0119553 0)
(10.0479 -0.0123591 0)
(10.0514 -0.0127636 0)
(10.0547 -0.0131708 0)
(10.0579 -0.0135829 0)
(10.0609 -0.0139887 0)
(10.0002 -0.00171197 0)
(10.0015 -0.00502514 0)
(10.0041 -0.00796105 0)
(10.0078 -0.0103233 0)
(10.012 -0.0121318 0)
(10.0164 -0.0135365 0)
(10.021 -0.0146434 0)
(10.0255 -0.0155094 0)
(10.03 -0.0161911 0)
(10.0343 -0.0167468 0)
(10.0385 -0.0172208 0)
(10.0425 -0.0176414 0)
(10.0464 -0.0180275 0)
(10.0501 -0.0183926 0)
(10.0535 -0.0187458 0)
(10.0569 -0.0190924 0)
(10.06 -0.0194365 0)
(10.063 -0.0197708 0)
(10.0002 -0.00237281 0)
(10.0016 -0.00705554 0)
(10.0047 -0.0112067 0)
(10.009 -0.0143858 0)
(10.0137 -0.0166916 0)
(10.0185 -0.0184347 0)
(10.0233 -0.0197747 0)
(10.0281 -0.0207825 0)
(10.0328 -0.0215392 0)
(10.0373 -0.0221258 0)
(10.0416 -0.0225986 0)
(10.0456 -0.0229941 0)
(10.0495 -0.0233385 0)
(10.0532 -0.0236511 0)
(10.0567 -0.0239447 0)
(10.06 -0.0242271 0)
(10.0631 -0.0245034 0)
(10.0661 -0.0247694 0)
(10.0002 -0.00299137 0)
(10.0018 -0.00911195 0)
(10.0054 -0.014475 0)
(10.0105 -0.0183724 0)
(10.0159 -0.0211246 0)
(10.0211 -0.0231547 0)
(10.0263 -0.024618 0)
(10.0314 -0.0256394 0)
(10.0362 -0.026373 0)
(10.0409 -0.0269285 0)
(10.0452 -0.0273625 0)
(10.0494 -0.0277101 0)
(10.0533 -0.0280007 0)
(10.057 -0.0282564 0)
(10.0605 -0.0284915 0)
(10.0638 -0.0287141 0)
(10.067 -0.0289296 0)
(10.0699 -0.0291356 0)
(10.0001 -0.00353664 0)
(10.0018 -0.0115638 0)
(10.0062 -0.0179068 0)
(10.0123 -0.0220116 0)
(10.0183 -0.0250855 0)
(10.024 -0.0275017 0)
(10.0296 -0.0291462 0)
(10.035 -0.0301624 0)
(10.0401 -0.0308204 0)
(10.0448 -0.0312851 0)
(10.0493 -0.0316239 0)
(10.0536 -0.0318772 0)
(10.0575 -0.0320788 0)
(10.0613 -0.0322525 0)
(10.0648 -0.0324117 0)
(10.0681 -0.0325635 0)
(10.0712 -0.0327117 0)
(10.0741 -0.0328525 0)
(9.99991 -0.00338459 0)
(10.0016 -0.0149785 0)
(10.0073 -0.0227418 0)
(10.0142 -0.0262594 0)
(10.0206 -0.028852 0)
(10.0268 -0.0312227 0)
(10.0331 -0.0329493 0)
(10.039 -0.0340422 0)
(10.0444 -0.0347464 0)
(10.0494 -0.0352143 0)
(10.054 -0.0355159 0)
(10.0583 -0.0357054 0)
(10.0622 -0.0358289 0)
(10.0659 -0.0359173 0)
(10.0693 -0.0359886 0)
(10.0725 -0.0360525 0)
(10.0754 -0.036114 0)
(10.0781 -0.0361712 0)
(9.9986 -0.000400997 0)
(9.99908 -0.0157645 0)
(10.0075 -0.0274418 0)
(10.0166 -0.0325073 0)
(10.0237 -0.0348879 0)
(10.0306 -0.0362478 0)
(10.0376 -0.0370036 0)
(10.0441 -0.037474 0)
(10.0498 -0.0378261 0)
(10.0549 -0.0380764 0)
(10.0595 -0.038224 0)
(10.0635 -0.0382939 0)
(10.0671 -0.0383163 0)
(10.0702 -0.0383123 0)
(10.073 -0.0382972 0)
(10.0754 -0.0382791 0)
(10.0775 -0.0382618 0)
(10.0794 -0.0382434 0)
(9.99488 0.00133351 0)
(9.99287 -0.00809847 0)
(10.006 -0.0203602 0)
(10.0202 -0.0322882 0)
(10.0306 -0.0404931 0)
(10.0392 -0.0441673 0)
(10.0467 -0.0450824 0)
(10.0529 -0.0449404 0)
(10.0577 -0.0444759 0)
(10.0616 -0.0438825 0)
(10.0645 -0.0432397 0)
(10.0667 -0.0426044 0)
(10.0681 -0.0420109 0)
(10.069 -0.0414675 0)
(10.0693 -0.0409838 0)
(10.0691 -0.0405562 0)
(10.0687 -0.0401818 0)
(10.0679 -0.0398349 0)
(9.99473 -0.0305627 0)
(9.99925 -0.022876 0)
(10.0147 -0.00264166 0)
(10.0304 -0.00191782 0)
(10.0434 -0.0116693 0)
(10.0533 -0.0209348 0)
(10.0594 -0.0272936 0)
(10.0618 -0.0315231 0)
(10.0615 -0.0342996 0)
(10.059 -0.0359973 0)
(10.055 -0.0369302 0)
(10.0497 -0.0373646 0)
(10.0434 -0.0374908 0)
(10.0364 -0.0374287 0)
(10.0288 -0.0372685 0)
(10.0208 -0.0370655 0)
(10.0127 -0.0368844 0)
(10.0045 -0.0366939 0)
(10.0273 -0.182759 0)
(10.0763 -0.288316 0)
(10.0871 -0.247759 0)
(10.0777 -0.186524 0)
(10.0663 -0.140303 0)
(10.0537 -0.108229 0)
(10.0365 -0.0858905 0)
(10.0145 -0.0704315 0)
(9.98933 -0.0596635 0)
(9.96228 -0.0518903 0)
(9.9343 -0.0460685 0)
(9.90597 -0.0415713 0)
(9.87778 -0.0380156 0)
(9.85006 -0.0351405 0)
(9.82306 -0.032774 0)
(9.79688 -0.0308528 0)
(9.77177 -0.0293355 0)
(9.74776 -0.0285151 0)
(9.93574 0.689319 0)
(9.8686 0.609604 0)
(9.76452 0.380621 0)
(9.62662 0.217439 0)
(9.48586 0.119264 0)
(9.35716 0.0631823 0)
(9.24262 0.0315703 0)
(9.14105 0.0136102 0)
(9.05135 0.00325671 0)
(8.97236 -0.00280477 0)
(8.90244 -0.00636043 0)
(8.84024 -0.00847984 0)
(8.78453 -0.00973066 0)
(8.7344 -0.0104767 0)
(8.68896 -0.0109797 0)
(8.64761 -0.0112487 0)
(8.6094 -0.0114551 0)
(8.57405 -0.012115 0)
(0.0046118 -0.0107685 -8.30335e-19)
(0.0162541 -0.0173327 7.36841e-19)
(0.0264233 -0.0151192 0)
(0.0330105 -0.00910388 0)
(0.035037 -0.00209927 0)
(0.0322918 0.00423433 -3.89704e-19)
(0.0258541 0.00910018 0)
(0.0165816 0.0124319 0)
(0.00519334 0.0145382 0)
(-0.007785 0.0158198 0)
(-0.0220091 0.0166515 2.36451e-19)
(-0.0372837 0.017295 0)
(-0.0535047 0.0178906 0)
(-0.0706168 0.01849 0)
(-0.0885848 0.0191052 0)
(-0.107386 0.0197241 1.28546e-19)
(-0.127 0.0203306 0)
(-0.147398 0.0209005 0)
(-0.168552 0.0214126 0)
(-0.190419 0.0218442 0)
(-0.212967 0.0221836 0)
(-0.23613 0.0224367 0)
(-0.25987 0.0226326 0)
(-0.284118 0.0228476 7.51317e-20)
(-0.308835 0.0231904 -7.16136e-20)
(-0.333962 0.0237518 6.84653e-20)
(-0.359472 0.0248134 6.56426e-20)
(-0.385329 0.0270452 0)
(-0.411567 0.0305043 0)
(-0.438304 0.0351772 -6.05019e-20)
(-0.465827 0.0417812 -6.00415e-20)
(-0.494923 0.0519165 0)
(-0.526237 0.065188 0)
(-0.562483 0.0394473 -8.26581e-20)
(-0.600228 -0.00149798 0)
(-0.630826 -0.00229941 0)
(-0.665373 -0.00510632 7.94969e-20)
(-0.700605 -0.0179764 0)
(-0.736391 0.0319075 5.03999e-20)
(-0.774695 0.0849339 9.21549e-20)
(-0.82363 0.100621 0)
(-0.867579 0.0699862 0)
(-0.906734 0.0280784 0)
(-0.939756 0.0317678 0)
(-0.977671 0.0331021 0)
(-1.01681 0.0338358 1.15628e-19)
(-1.05673 0.0344771 1.12234e-19)
(-1.09723 0.0346267 1.09049e-19)
(-1.13789 0.0345512 0)
(-1.17862 0.0343537 -1.03265e-19)
(-1.2193 0.0340913 0)
(-1.2599 0.0337862 9.81689e-20)
(-1.30037 0.0334551 9.58444e-20)
(-1.3407 0.0331055 0)
(-1.38085 0.0327433 0)
(-1.42081 0.0323709 0)
(-1.46056 0.0319896 8.77627e-20)
(-1.5001 0.0315997 0)
(-1.53939 0.0312007 0)
(-1.57843 0.0307917 0)
(-1.61719 0.0303716 0)
(-1.65565 0.0299393 0)
(-1.69379 0.0294932 0)
(-1.73159 0.0290322 0)
(-1.76901 0.0285549 0)
(-1.80603 0.0280602 -7.44358e-20)
(-1.84263 0.0275472 0)
(-1.87875 0.0270148 0)
(-1.91438 0.0264625 7.09472e-20)
(-1.94948 0.0258895 6.98563e-20)
(-1.98401 0.0252954 0)
(-2.01793 0.0246799 -6.77649e-20)
(-2.05121 0.0240427 6.67589e-20)
(-2.08381 0.0233837 0)
(-2.11568 0.0227032 -6.48136e-20)
(-2.14679 0.0220009 0)
(-2.1771 0.0212778 0)
(-2.20657 0.0205338 6.20284e-20)
(-2.23514 0.0197696 0)
(-2.2628 0.0189854 -6.02356e-20)
(-2.28948 0.0181821 0)
(-2.31516 0.0173598 5.84756e-20)
(-2.33979 0.0165193 5.76035e-20)
(-2.36334 0.0156604 5.67343e-20)
(-2.38576 0.014784 1.11733e-19)
(-2.40701 0.0138895 -1.09996e-19)
(-2.42706 0.0129769 0)
(-2.44586 0.0120444 0)
(-2.46337 0.0110899 0)
(-2.47955 0.0101088 -1.02983e-19)
(-2.49436 0.00909516 -1.012e-19)
(-2.50775 0.00804169 9.9399e-20)
(-2.51966 0.00693937 0)
(-2.53003 0.00577806 -9.57396e-20)
(-2.53878 0.00455204 -9.3878e-20)
(-2.54585 0.00327544 -9.19951e-20)
(-2.55115 0.00200122 0)
(-2.55455 0.000821657 0)
(-2.55596 -0.000184442 0)
(-2.55596 -0.00107585 -8.4121e-20)
(-2.55443 -0.00194226 0)
(-2.55142 -0.0027961 0)
(-2.54694 -0.00364479 7.77046e-20)
(-2.54096 -0.00448905 0)
(-2.53349 -0.0053285 0)
(-2.52451 -0.0061629 7.07937e-20)
(-2.51402 -0.00699104 0)
(-2.50202 -0.00781291 0)
(-2.48849 -0.00862728 -6.3321e-20)
(-2.47344 -0.00943428 -6.06933e-20)
(-2.45686 -0.0102326 0)
(-2.43877 -0.0110224 5.52173e-20)
(-2.41916 -0.0118023 0)
(-2.39804 -0.0125726 -4.94283e-20)
(-2.37542 -0.0133318 0)
(-2.35129 -0.0140804 -4.3303e-20)
(-2.32569 -0.0148167 -4.01064e-20)
(-2.29861 -0.0155412 0)
(-2.27007 -0.0162527 0)
(-2.24008 -0.0169519 0)
(-2.20868 -0.017638 0)
(-2.17587 -0.0183112 0)
(-2.14167 -0.0189695 0)
(-2.10612 -0.0196133 0)
(-2.06921 -0.0202408 -1.08356e-20)
(-2.031 -0.0208539 6.64962e-21)
(-1.99149 -0.0214513 0)
(-1.95071 -0.0220356 0)
(-1.90871 -0.0226041 0)
(-1.86549 -0.0231572 0)
(-1.8211 -0.023694 -3.28301e-20)
(-1.77558 -0.0242151 0)
(-1.72895 -0.0247195 5.35393e-20)
(-1.68125 -0.0252113 -6.44426e-20)
(-1.63252 -0.0256864 0)
(-1.5828 -0.0261458 0)
(-1.53213 -0.0265895 0)
(-1.48054 -0.0270177 1.12193e-19)
(-1.42809 -0.0274308 1.25288e-19)
(-1.37481 -0.0278296 0)
(-1.32075 -0.0282143 1.53062e-19)
(-1.26595 -0.0285856 1.67809e-19)
(-1.21047 -0.0289442 -1.8318e-19)
(-1.15434 -0.0292903 0)
(-1.09761 -0.0296251 0)
(-1.04032 -0.0299485 -2.33482e-19)
(-0.98251 -0.0302617 0)
(-0.92423 -0.0305651 0)
(-0.865519 -0.0308599 0)
(-0.806419 -0.0311464 0)
(-0.746972 -0.0314261 3.34719e-19)
(-0.687219 -0.0316993 3.5824e-19)
(-0.627198 -0.0319676 0)
(-0.566948 -0.0322314 4.09344e-19)
(-0.506508 -0.0324921 0)
(-0.445913 -0.0327503 0)
(-0.3852 -0.0330069 4.9818e-19)
(-0.324404 -0.0332619 0)
(-0.26356 -0.0335179 5.67551e-19)
(-0.202704 -0.0337824 0)
(-0.141869 -0.0340709 0)
(-0.0810944 -0.0343564 6.91769e-19)
(-0.0204394 -0.0344544 0)
(0.0400312 -0.0339567 7.39575e-19)
(0.100383 -0.0330286 0)
(0.160559 -0.0320978 0)
(0.220516 -0.0312215 0)
(0.28025 -0.0303951 -6.70672e-19)
(0.339765 -0.0296107 0)
(0.39906 -0.028859 6.4333e-19)
(0.458117 -0.0281296 0)
(0.516899 -0.0274089 0)
(0.575333 -0.026677 0)
(0.633278 -0.0259021 0)
(0.690531 -0.0250252 0)
(0.746462 -0.0239346 0)
(0.800766 -0.0223558 0)
(0.848546 -0.0196407 -1.13474e-18)
(0.895635 -0.0142113 0)
(0.888896 0.00306596 0)
(0.00471802 -0.0328296 1.93844e-18)
(0.0106955 -0.0332485 -1.113e-18)
(0.0108521 -0.0208703 0)
(0.00808104 -0.00742203 3.50078e-19)
(0.00287014 0.00532183 0)
(-0.00446438 0.0164867 1.36657e-19)
(-0.013915 0.0256321 -2.5026e-19)
(-0.0253865 0.032758 -2.31265e-19)
(-0.0387469 0.0381641 0)
(-0.0537922 0.0422774 -1.98066e-19)
(-0.0702967 0.0455176 -9.1726e-20)
(-0.0880818 0.0482095 0)
(-0.107019 0.0505689 0)
(-0.127014 0.0527179 0)
(-0.148006 0.0547229 0)
(-0.169952 0.0566118 -6.50766e-20)
(-0.19283 0.0583999 0)
(-0.216624 0.0600895 1.16538e-19)
(-0.241329 0.061683 0)
(-0.266943 0.0631777 0)
(-0.293476 0.0645739 -1.01603e-19)
(-0.320943 0.0658736 0)
(-0.34938 0.06708 9.41969e-20)
(-0.378825 0.0682113 -4.56547e-20)
(-0.409352 0.0692854 4.43485e-20)
(-0.44106 0.0703273 -4.3273e-20)
(-0.474086 0.0713467 -4.24588e-20)
(-0.508547 0.0723844 0)
(-0.544585 0.0734353 0)
(-0.582394 0.0744663 4.22083e-20)
(-0.62208 0.0755802 -4.24994e-20)
(-0.662838 0.0772467 0)
(-0.702349 0.0800615 0)
(-0.743536 0.0832642 4.78552e-20)
(-0.785023 0.0858699 0)
(-0.826312 0.089116 0)
(-0.865857 0.0908092 -3.99013e-20)
(-0.908606 0.0905068 0)
(-0.9486 0.0890078 3.36731e-20)
(-0.986737 0.0888624 -6.67019e-20)
(-1.02107 0.0866072 0)
(-1.06052 0.0851399 0)
(-1.10316 0.0856841 -1.33482e-19)
(-1.14649 0.0876722 -1.30276e-19)
(-1.18674 0.0886942 -1.27321e-19)
(-1.22545 0.0888283 6.20843e-20)
(-1.26329 0.0885124 -6.10626e-20)
(-1.30059 0.0879145 -1.79049e-19)
(-1.33748 0.0871131 1.16849e-19)
(-1.37404 0.0861856 5.74222e-20)
(-1.41029 0.0851777 0)
(-1.44624 0.0841181 -5.52882e-20)
(-1.48189 0.0830239 5.40089e-20)
(-1.51725 0.0819053 0)
(-1.55231 0.0807677 0)
(-1.58706 0.0796134 0)
(-1.6215 0.0784428 -5.07287e-20)
(-1.6556 0.0772548 0)
(-1.68936 0.0760476 9.80157e-20)
(-1.72276 0.0748188 0)
(-1.75578 0.0735659 9.50704e-20)
(-1.78841 0.0722861 0)
(-1.82062 0.0709769 -9.23069e-20)
(-1.85238 0.0696356 0)
(-1.88368 0.06826 8.96963e-20)
(-1.91449 0.066848 -4.40936e-20)
(-1.94479 0.065398 0)
(-1.97453 0.0639083 -8.60123e-20)
(-2.00371 0.0623781 -4.25362e-20)
(-2.03228 0.0608064 -4.19551e-20)
(-2.06022 0.0591928 0)
(-2.08749 0.0575368 -4.05997e-20)
(-2.11406 0.0558387 -4.02616e-20)
(-2.13991 0.0540986 0)
(-2.165 0.0523171 3.91634e-20)
(-2.1893 0.0504949 -7.70509e-20)
(-2.21277 0.0486333 0)
(-2.23539 0.0467333 -3.75417e-20)
(-2.25711 0.0447965 0)
(-2.27792 0.042824 1.09245e-19)
(-2.29777 0.0408178 0)
(-2.31664 0.038779 -1.0603e-19)
(-2.33449 0.0367099 -3.48463e-20)
(-2.35129 0.0346113 3.41851e-20)
(-2.36702 0.0324856 6.72924e-20)
(-2.38164 0.030334 -6.62059e-20)
(-2.39512 0.0281583 0)
(-2.40743 0.0259594 0)
(-2.41855 0.0237383 0)
(-2.42845 0.0214943 1.85423e-19)
(-2.43711 0.0192257 6.0664e-20)
(-2.44451 0.0169318 -5.94716e-20)
(-2.45064 0.0146115 0)
(-2.4555 0.0122619 -5.70388e-20)
(-2.45909 0.00987606 5.57849e-20)
(-2.46146 0.00745188 5.45188e-20)
(-2.46267 0.00501351 0)
(-2.46282 0.00263338 0)
(-2.46202 0.000400295 0)
(-2.45985 -0.00171539 4.91745e-20)
(-2.45628 -0.00378859 0)
(-2.45128 -0.00583223 -9.28789e-20)
(-2.44482 -0.00785459 -1.3488e-19)
(-2.4369 -0.00985628 8.70593e-20)
(-2.4275 -0.011836 0)
(-2.41661 -0.013792 4.06672e-20)
(-2.40423 -0.015722 0)
(-2.39036 -0.0176245 7.47687e-20)
(-2.37498 -0.0194972 -3.59729e-20)
(-2.3581 -0.021339 -3.43502e-20)
(-2.33972 -0.0231477 0)
(-2.31984 -0.0249223 -9.21014e-20)
(-2.29846 -0.0266604 5.81067e-20)
(-2.27559 -0.0283613 2.7034e-20)
(-2.25124 -0.0300228 0)
(-2.22541 -0.0316441 2.34029e-20)
(-2.19811 -0.0332228 6.52273e-20)
(-2.16936 -0.0347581 0)
(-2.13917 -0.0362482 3.61027e-20)
(-2.10755 -0.0376933 3.22166e-20)
(-2.07452 -0.0390925 2.82672e-20)
(-2.04011 -0.0404453 0)
(-2.00433 -0.0417489 0)
(-1.9672 -0.0430023 0)
(-1.92874 -0.0442027 -6.3149e-21)
(-1.88899 -0.0453512 -3.37291e-21)
(-1.84795 -0.0464464 0)
(-1.80567 -0.0474907 1.16473e-21)
(-1.76217 -0.0484826 5.62518e-21)
(-1.71748 -0.0494243 0)
(-1.67163 -0.0503148 1.56584e-20)
(-1.62466 -0.0511511 3.87814e-20)
(-1.5766 -0.0519267 -2.50664e-20)
(-1.52748 -0.052649 -2.79163e-20)
(-1.47734 -0.0533212 0)
(-1.42623 -0.053941 0)
(-1.37417 -0.0545045 0)
(-1.32122 -0.0550146 -4.96907e-20)
(-1.2674 -0.0554714 5.27009e-20)
(-1.21277 -0.0558764 1.17833e-19)
(-1.15738 -0.0562307 -6.52219e-20)
(-1.10126 -0.0565354 6.83437e-20)
(-1.04445 -0.0567921 7.58895e-20)
(-0.987014 -0.0570017 0)
(-0.928979 -0.0571657 0)
(-0.870393 -0.0572851 -9.01013e-20)
(-0.811299 -0.0573616 0)
(-0.751739 -0.0573965 0)
(-0.691757 -0.0573918 2.16507e-19)
(-0.631394 -0.0573491 0)
(-0.570693 -0.0572705 1.18756e-19)
(-0.509692 -0.0571578 -1.27025e-19)
(-0.448433 -0.0570131 0)
(-0.386954 -0.0568384 1.3673e-19)
(-0.325293 -0.0566351 0)
(-0.263486 -0.0564057 0)
(-0.20157 -0.0561514 -1.57659e-19)
(-0.139579 -0.0558728 3.25578e-19)
(-0.0775468 -0.0555703 -1.70354e-19)
(-0.0155061 -0.0552449 0)
(0.0465243 -0.0548945 0)
(0.108523 -0.0545168 1.79055e-19)
(0.170482 -0.0540702 0)
(0.232336 -0.0534243 1.82687e-19)
(0.293995 -0.0526068 0)
(0.355456 -0.0517636 0)
(0.416748 -0.0509399 0)
(0.477863 -0.050141 1.91863e-19)
(0.538798 -0.0493607 0)
(0.59954 -0.0485895 -1.9482e-19)
(0.660066 -0.0478126 0)
(0.720335 -0.0470093 0)
(0.780272 -0.0461446 3.95406e-19)
(0.83974 -0.0451599 -3.97663e-19)
(0.898528 -0.0439417 0)
(0.956125 -0.0422781 0)
(1.01212 -0.0396336 0)
(1.06357 -0.0350208 1.22486e-18)
(1.11359 -0.025064 0)
(1.14031 -0.00103548 -8.50774e-19)
(0.000247645 -0.0413133 -8.03513e-22)
(-0.00192726 -0.0283505 1.08121e-18)
(-0.00803995 -0.00962971 0)
(-0.0161061 0.00768869 -4.41886e-19)
(-0.0256643 0.0233003 0)
(-0.0364088 0.0371204 0)
(-0.0483288 0.0490569 4.86948e-23)
(-0.0615178 0.0591075 1.36904e-19)
(-0.0760555 0.0674284 1.28805e-19)
(-0.0919619 0.0743006 1.21799e-19)
(-0.109198 0.0800526 0)
(-0.127693 0.0849884 0)
(-0.147369 0.0893544 -1.03979e-19)
(-0.168154 0.0933266 -1.97977e-19)
(-0.189993 0.0970242 1.88877e-19)
(-0.21285 0.10052 0)
(-0.236701 0.103863 1.73125e-19)
(-0.261538 0.10708 -8.32348e-20)
(-0.28736 0.110191 0)
(-0.314175 0.113211 1.54629e-19)
(-0.342 0.116153 7.48612e-20)
(-0.370854 0.119034 -1.4496e-19)
(-0.400766 0.121875 -7.04931e-20)
(-0.43176 0.124706 0)
(-0.463867 0.127565 1.33711e-19)
(-0.497094 0.130497 1.3084e-19)
(-0.531436 0.133552 0)
(-0.566823 0.136788 1.26573e-19)
(-0.603096 0.140224 0)
(-0.640025 0.143837 1.24262e-19)
(-0.677258 0.147591 6.18997e-20)
(-0.714272 0.151297 0)
(-0.750601 0.154234 0)
(-0.786909 0.154972 0)
(-0.823699 0.154136 0)
(-0.860745 0.153831 0)
(-0.897645 0.153343 0)
(-0.934742 0.152676 1.01342e-19)
(-0.970933 0.153863 -1.47012e-19)
(-1.00506 0.155585 0)
(-1.03733 0.154491 0)
(-1.07027 0.150994 0)
(-1.1047 0.146993 1.02806e-22)
(-1.13959 0.144632 8.92919e-20)
(-1.17385 0.142728 1.74704e-19)
(-1.20747 0.141012 -1.7114e-19)
(-1.24064 0.139339 -8.37906e-20)
(-1.27343 0.13763 8.23139e-20)
(-1.30592 0.135871 -1.50323e-22)
(-1.33816 0.134069 7.91237e-20)
(-1.37019 0.132235 0)
(-1.40201 0.130377 7.63385e-20)
(-1.43362 0.1285 -1.55791e-22)
(-1.46504 0.126606 0)
(-1.49624 0.124695 0)
(-1.52723 0.122766 -7.13971e-20)
(-1.55798 0.120815 0)
(-1.5885 0.11884 0)
(-1.61876 0.116835 6.79673e-20)
(-1.64874 0.114797 1.34207e-19)
(-1.67843 0.112721 -6.62676e-20)
(-1.7078 0.110603 0)
(-1.73684 0.108439 6.43545e-20)
(-1.76552 0.106225 0)
(-1.79382 0.103959 6.22255e-20)
(-1.8217 0.101637 6.16458e-20)
(-1.84915 0.0992567 -1.21262e-19)
(-1.87613 0.0968169 -5.96366e-20)
(-1.90262 0.0943159 0)
(-1.92859 0.0917529 1.16241e-19)
(-1.954 0.0891273 0)
(-1.97883 0.086439 1.69634e-19)
(-2.00305 0.0836885 1.11408e-19)
(-2.02661 0.0808762 1.09826e-19)
(-2.0495 0.0780033 -1.08254e-19)
(-2.07167 0.0750713 1.60147e-19)
(-2.0931 0.072082 0)
(-2.11376 0.0690373 0)
(-2.1336 0.0659396 -1.0202e-19)
(-2.1526 0.062791 -1.50785e-19)
(-2.17072 0.0595944 0)
(-2.18794 0.0563522 4.87468e-20)
(-2.20421 0.0530675 0)
(-2.21952 0.049743 -1.41336e-19)
(-2.23383 0.0463818 -1.1769e-22)
(-2.2471 0.0429867 1.03912e-22)
(-2.25932 0.039561 8.93577e-20)
(-2.27046 0.0361075 0)
(-2.28048 0.0326294 -8.60648e-20)
(-2.28936 0.0291291 -4.57485e-23)
(-2.2971 0.0256099 0)
(-2.30367 0.0220762 0)
(-2.30905 0.0185352 0)
(-2.31325 0.0149968 7.74681e-20)
(-2.31626 0.0114746 0)
(-2.31809 0.00798757 0)
(-2.31873 0.00455862 0)
(-2.31814 0.00119747 0)
(-2.31628 -0.00212624 0)
(-2.31307 -0.005434 6.62521e-20)
(-2.30849 -0.00871648 0)
(-2.30252 -0.01197 6.21052e-20)
(-2.29515 -0.0151926 6.00471e-20)
(-2.28635 -0.0183811 -5.796e-20)
(-2.27612 -0.0215323 0)
(-2.26445 -0.0246424 -5.36979e-20)
(-2.25133 -0.027708 0)
(-2.23675 -0.030726 -4.9317e-20)
(-2.22072 -0.0336934 4.70817e-20)
(-2.20323 -0.0366072 1.35019e-19)
(-2.18428 -0.0394648 0)
(-2.16387 -0.0422633 1.21226e-19)
(-2.14201 -0.0450004 3.85105e-20)
(-2.1187 -0.0476733 0)
(-2.09394 -0.0502798 6.6826e-20)
(-2.06775 -0.0528174 6.19757e-20)
(-2.04013 -0.0552836 -8.52063e-20)
(-2.01109 -0.0576761 0)
(-1.98066 -0.0599932 -2.31172e-20)
(-1.94883 -0.0622337 -2.05667e-20)
(-1.91564 -0.0643965 -5.48815e-20)
(-1.88109 -0.0664798 0)
(-1.84521 -0.0684809 0)
(-1.80802 -0.070397 0)
(-1.76953 -0.0722258 -8.453e-21)
(-1.72977 -0.0739666 0)
(-1.68877 -0.0756189 0)
(-1.64656 -0.0771838 -7.24297e-22)
(-1.60316 -0.0786616 -3.48565e-21)
(-1.55859 -0.0800532 0)
(-1.5129 -0.0813576 0)
(-1.46612 -0.0825713 -2.37663e-20)
(-1.41827 -0.0836895 0)
(-1.36939 -0.0847169 3.5139e-20)
(-1.31951 -0.0856566 3.9635e-20)
(-1.26868 -0.0865074 0)
(-1.21694 -0.0872662 0)
(-1.16432 -0.0879343 -5.69405e-20)
(-1.11086 -0.0885133 -1.29727e-21)
(-1.05661 -0.0890048 -1.31097e-21)
(-1.0016 -0.0894106 0)
(-0.945894 -0.0897327 -1.61993e-19)
(-0.88952 -0.0899729 0)
(-0.832524 -0.0901331 0)
(-0.774948 -0.0902151 0)
(-0.716835 -0.0902211 1.05336e-19)
(-0.658228 -0.0901532 0)
(-0.599168 -0.0900141 -2.31667e-19)
(-0.539698 -0.0898062 -1.23171e-19)
(-0.479859 -0.0895324 0)
(-0.419691 -0.0891955 -1.35072e-19)
(-0.359235 -0.0887984 0)
(-0.298531 -0.088344 0)
(-0.237615 -0.0878355 -4.55871e-19)
(-0.176526 -0.0872753 3.14824e-19)
(-0.115299 -0.0866658 0)
(-0.0539685 -0.0860099 3.38463e-19)
(0.0074344 -0.085312 -1.75739e-19)
(0.0688792 -0.0845744 0)
(0.130332 -0.0837976 0)
(0.191761 -0.0829784 0)
(0.253139 -0.0821197 -5.64484e-19)
(0.314457 -0.0812205 0)
(0.375704 -0.0802831 -1.95036e-19)
(0.436844 -0.0793126 0)
(0.497863 -0.0783257 0)
(0.558753 -0.0773452 0)
(0.619496 -0.0763748 0)
(0.680078 -0.0754087 0)
(0.740481 -0.0744353 0)
(0.800681 -0.0734352 -4.26003e-19)
(0.860634 -0.0723782 0)
(0.920269 -0.0712131 -2.1868e-19)
(0.979458 -0.0698519 6.60415e-19)
(1.03801 -0.0681327 0)
(1.09551 -0.0657516 0)
(1.15164 -0.0620599 -4.52544e-19)
(1.20449 -0.055808 -4.59413e-19)
(1.25704 -0.0439831 4.64813e-19)
(1.29702 -0.0190723 4.78931e-19)
(-0.00473626 -0.0333156 -2.98363e-18)
(-0.0126059 -0.0113447 -1.30022e-18)
(-0.0226403 0.0107341 -4.71334e-19)
(-0.034265 0.0301213 -1.68034e-19)
(-0.0468783 0.0474449 0)
(-0.0601495 0.0629439 2.4333e-19)
(-0.0741223 0.0766822 -1.11212e-19)
(-0.0889324 0.0887054 0)
(-0.104702 0.0991262 -9.80836e-20)
(-0.121517 0.108136 0)
(-0.139417 0.115977 1.77711e-19)
(-0.158407 0.122896 0)
(-0.178465 0.129118 8.1347e-20)
(-0.19956 0.134825 1.5606e-19)
(-0.22166 0.140152 -1.49962e-19)
(-0.244737 0.145198 0)
(-0.268771 0.15003 -1.39233e-19)
(-0.293747 0.154695 0)
(-0.319655 0.159224 0)
(-0.346486 0.163638 -1.26206e-19)
(-0.374232 0.167954 0)
(-0.402876 0.172184 9.92727e-23)
(-0.432396 0.176339 0)
(-0.46275 0.180428 0)
(-0.493876 0.184455 -1.19894e-22)
(-0.525679 0.188415 -1.07247e-19)
(-0.55803 0.192288 -1.04636e-19)
(-0.590758 0.196042 -1.02404e-19)
(-0.623659 0.199603 0)
(-0.656525 0.202862 -1.96504e-19)
(-0.689152 0.205662 0)
(-0.721385 0.20778 -9.45912e-20)
(-0.753207 0.208895 0)
(-0.784868 0.208731 0)
(-0.816647 0.207603 8.76633e-20)
(-0.848558 0.206313 0)
(-0.880439 0.205067 -8.25289e-20)
(-0.91212 0.204046 -1.27683e-22)
(-0.943214 0.203518 1.56744e-19)
(-0.973346 0.202912 -1.53252e-19)
(-1.00277 0.20116 0)
(-1.0322 0.19834 0)
(-1.06197 0.195099 -7.18438e-20)
(-1.09194 0.19213 0)
(-1.12185 0.1894 -6.89295e-20)
(-1.15159 0.186827 6.75722e-20)
(-1.18116 0.184346 6.62726e-20)
(-1.21055 0.181904 0)
(-1.23977 0.179474 -6.38361e-20)
(-1.26886 0.177044 -6.26932e-20)
(-1.2978 0.174607 1.23071e-19)
(-1.32662 0.172161 -6.05425e-20)
(-1.35531 0.169703 -5.95285e-20)
(-1.38386 0.167227 0)
(-1.41226 0.164731 0)