/*--------------------------------*- C++ -*----------------------------------*\
  =========                 |
  \\      /  F ield         | OpenFOAM: The Open Source CFD Toolbox
   \\    /   O peration     | Website:  https://openfoam.org
    \\  /    A nd           | Version:  7
     \\/     M anipulation  |
\*---------------------------------------------------------------------------*/
FoamFile
{
    version     2.0;
    format      ascii;
    class       volScalarField;
    location    "100";
    object      epsilon;
}
// * * * * * * * * * * * * * * * * * * * * * * * * * * * * * * * * * * * * * //

dimensions      [0 2 -3 0 0 0 0];

internalField   nonuniform List<scalar> 
12225
(
285.523
270.712
257.907
243.825
232.441
223.117
216.773
212.722
212.758
213.987
217.286
220.96
228.249
232.944
241.585
247.325
254.655
265.893
52.4869
91.9002
106.961
114.778
124.832
136.843
152.703
170.011
191.238
211.133
235.586
255.875
281.888
300.1
326.611
340.885
369.496
377.95
20.526
34.8808
44.6666
50.4826
55.3854
59.6309
64.6564
69.6817
76.3359
83.2676
91.52
99.506
108.375
117.373
125.998
136.348
143.738
156.727
16.003
19.4888
24.0766
27.5698
30.4914
32.8793
35.1517
37.3088
39.5044
41.9473
44.3546
47.2646
49.7359
53.1717
55.5621
59.5193
61.8732
66.428
15.0386
15.7133
17.3969
19.0814
20.6368
22.0303
23.2444
24.438
25.4445
26.6069
27.5298
28.7816
29.6533
31.032
31.8707
33.3622
34.229
35.8905
14.7897
14.8258
15.2493
15.8686
16.5663
17.2889
17.9229
18.5873
19.1195
19.7394
20.1966
20.8089
21.2184
21.842
22.223
22.8655
23.2375
23.9486
14.7657
14.6147
14.6409
14.726
14.9345
15.2207
15.4912
15.8102
16.0712
16.385
16.6198
16.9247
17.1357
17.4359
17.6273
17.9304
18.1067
18.4443
14.7686
14.5867
14.4659
14.3802
14.3676
14.3895
14.4395
14.5338
14.6185
14.7375
14.8316
14.9583
15.0499
15.1802
15.2662
15.4001
15.4813
15.6369
14.768
14.591
14.4349
14.2963
14.185
14.1044
14.0398
14.0067
13.9814
13.9787
13.9811
13.9921
14.0048
14.0309
14.0493
14.0828
14.1083
14.1539
14.7665
14.594
14.432
14.2821
14.1429
14.0219
13.9114
13.8193
13.7369
13.6697
13.6101
13.5633
13.5181
13.4874
13.4522
13.4352
13.4042
13.4042
14.7659
14.5945
14.4322
14.2803
14.1361
14.0032
13.8781
13.7643
13.658
13.5627
13.4733
13.3949
13.3195
13.2558
13.1914
13.1408
13.0842
13.0461
14.7657
14.5943
14.4321
14.2798
14.1353
13.9998
13.8714
13.7517
13.6384
13.5335
13.4338
13.3427
13.2554
13.1767
13.0999
13.0326
12.9646
12.9076
14.7657
14.5941
14.432
14.2794
14.135
13.9989
13.8698
13.7484
13.6331
13.5248
13.4218
13.3255
13.2335
13.1481
13.066
12.9904
12.917
12.8503
14.7657
14.594
14.4318
14.2791
14.1346
13.9983
13.8692
13.7472
13.6315
13.5222
13.4183
13.3202
13.2269
13.1388
13.0549
12.9758
12.9002
12.8292
14.7657
14.5938
14.4317
14.2787
14.1342
13.9977
13.8686
13.7464
13.6307
13.5211
13.4171
13.3185
13.2249
13.1361
13.0516
12.9716
12.8953
12.823
14.7657
14.5938
14.4316
14.2785
14.1339
13.9973
13.8681
13.7458
13.63
13.5203
13.4162
13.3175
13.2237
13.1348
13.0502
12.9699
12.8935
12.8208
14.7657
14.5937
14.4315
14.2783
14.1337
13.997
13.8677
13.7453
13.6295
13.5196
13.4155
13.3167
13.2229
13.1338
13.0492
12.9688
12.8923
12.8195
14.7657
14.5937
14.4314
14.2782
14.1335
13.9968
13.8674
13.745
13.6291
13.5192
13.415
13.3161
13.2223
13.1331
13.0484
12.9679
12.8913
12.8185
14.7657
14.5937
14.4314
14.2782
14.1335
13.9967
13.8673
13.7449
13.6289
13.519
13.4147
13.3158
13.2219
13.1327
13.048
12.9674
12.8908
12.8179
14.7657
14.5937
14.4314
14.2782
14.1336
13.9968
13.8675
13.745
13.6291
13.5191
13.4149
13.316
13.2222
13.1329
13.0483
12.9677
12.8911
12.8182
14.7657
14.5937
14.4315
14.2784
14.1338
13.9971
13.8678
13.7454
13.6295
13.5197
13.4155
13.3168
13.2231
13.1341
13.0496
12.9693
12.893
12.8204
14.7657
14.5937
14.4316
14.2785
14.1341
13.9975
13.8685
13.7465
13.6312
13.5221
13.4192
13.3215
13.2295
13.1421
13.0597
12.9813
12.9077
12.8372
14.7659
14.5937
14.4318
14.2788
14.1353
14.0002
13.8742
13.756
13.6464
13.5436
13.4486
13.3593
13.2772
13.1994
13.1284
13.0603
12.9991
12.9389
14.7661
14.5928
14.4329
14.2844
14.1515
14.0322
13.929
13.8376
13.7593
13.6894
13.6307
13.577
13.5328
13.4905
13.4574
13.4229
13.3987
13.3691
14.7641
14.5936
14.461
14.3604
14.303
14.2767
14.2796
14.2939
14.3202
14.3529
14.3957
14.4343
14.4821
14.5213
14.5714
14.6082
14.6607
14.6927
14.757
14.6921
14.7579
14.9172
15.1827
15.4611
15.7474
16.0119
16.272
16.5034
16.7354
16.9378
17.1496
17.3295
17.5291
17.6914
17.886
18.0325
14.9574
15.4344
16.5693
17.6884
18.7051
19.5676
20.3367
20.9964
21.6184
22.1649
22.717
23.2086
23.7367
24.2004
24.7276
25.1764
25.717
26.1563
16.2579
20.9389
25.0149
27.7587
29.784
31.358
32.7754
34.0568
35.3564
36.6128
37.9697
39.2904
40.7514
42.1338
43.701
45.1533
46.8566
48.3263
29.9428
47.2246
54.8702
58.6724
61.6123
64.4292
67.575
70.972
74.7276
78.6991
82.9646
87.3167
91.8692
96.404
101.042
105.552
110.09
114.475
165.79
160.073
154.899
149.564
144.48
139.677
135.614
132.109
129.269
126.971
125.317
124.039
123.332
122.818
122.815
122.962
123.244
123.793
3.55411
2.23654
3.33795
4.30663
5.17801
5.97156
6.70361
7.37165
7.96015
8.43093
8.72226
8.6864
8.01108
8.05616
8.45619
38.1499
42.0618
45.4057
47.5246
48.3054
47.3415
44.553
49.4568
55.8812
63.0417
71.0083
79.7771
89.284
99.5319
110.435
121.983
134.078
146.706
159.761
173.232
187.016
201.111
215.424
229.963
244.644
259.488
274.419
289.47
304.575
319.77
334.993
350.282
365.584
380.933
396.284
411.668
427.044
442.438
457.813
473.189
488.532
503.859
519.14
534.382
549.565
564.685
579.732
594.691
609.565
624.322
638.981
653.496
667.894
682.12
696.222
710.133
723.929
737.527
751.032
764.341
777.581
790.639
803.665
816.546
829.451
842.242
855.118
867.931
880.899
893.838
906.99
920.172
933.625
947.211
961.095
975.209
989.46
1003.78
1017.94
1031.58
1043.84
1052.94
1052.81
1065.96
1095.71
1099.45
1128.51
1136.29
1157.1
1160.88
1165.49
1178.25
1198.47
1218.95
1223.09
1221.77
1244.54
1246.85
1247.06
1251.73
1258.25
1262.75
1273.3
1268.82
1276.46
1270.66
1266.9
1259.72
1250.58
1239.46
1226.46
1211.5
1194.63
1175.72
1154.91
1132.24
1107.86
1081.89
1054.53
1025.54
995.234
963.937
931.854
899.219
866.248
832.953
799.765
767.429
734.606
703.9
681.722
661.983
642.667
623.555
604.735
586.256
568.19
550.622
533.248
516.158
499.828
484.16
468.865
454.019
439.714
426.042
413.04
400.651
388.838
377.616
366.969
356.877
347.315
338.272
329.712
321.616
313.92
306.652
299.574
293.072
285.97
280.448
271.287
267.47
243.409
7.93605
4.86285
4.60348
4.83861
5.27023
5.80995
6.43029
7.1184
7.87078
8.68675
9.6084
10.7487
12.3698
14.3943
17.2125
21.6995
24.6298
27.2175
29.7309
32.313
35.1241
38.2366
42.2156
46.5656
51.1889
56.0701
61.1871
66.4988
71.9724
77.5805
83.3081
89.1336
95.0481
101.035
107.089
113.197
119.359
125.565
131.817
138.106
144.438
150.806
157.217
163.669
170.152
176.661
183.198
189.758
196.343
202.945
209.568
216.204
222.855
229.514
236.18
242.847
249.514
256.174
262.826
269.464
276.085
282.683
289.255
295.796
302.301
308.766
315.186
321.559
327.878
334.142
340.345
346.493
352.576
358.606
364.572
370.487
376.341
382.153
387.914
393.641
399.326
404.99
410.621
416.243
421.838
427.433
433.011
438.596
444.169
449.747
455.285
460.745
466.077
471.211
476.054
480.487
484.455
488.213
493.78
500.082
504.142
510.037
513.659
517.969
520.519
523.734
528.139
533.037
536.779
538.576
539.074
545.901
546.631
546.687
548.657
552.757
553.899
553.859
554.02
556.182
554.375
552.986
550.683
547.619
543.914
539.539
534.483
528.739
522.271
515.099
507.189
498.56
489.244
479.284
468.676
457.498
445.839
433.77
421.364
408.698
395.812
382.797
369.811
356.707
343.774
332.287
321.519
311.061
300.799
290.746
280.925
271.359
262.08
253.017
243.981
235.226
226.798
218.64
210.76
203.173
195.905
188.976
182.377
176.093
170.125
164.465
159.103
154.03
149.238
144.711
140.445
136.414
132.635
129.026
125.737
122.414
119.813
116.469
116.78
117.086
14.3932
7.89092
6.81827
6.71715
6.97584
7.44007
8.06449
8.84412
9.79459
10.9505
12.3469
14.0243
16.0336
18.3111
20.8719
23.6918
26.4002
29.0639
31.7442
34.5016
37.3849
40.6655
44.3132
48.1799
52.2055
56.3752
60.6251
64.9301
69.3222
73.8023
78.3657
83.0037
87.7112
92.4839
97.3218
102.217
107.165
112.162
117.209
122.3
127.436
132.613
137.832
143.089
148.383
153.709
159.069
164.458
169.877
175.322
180.793
186.286
191.801
197.334
202.884
208.446
214.019
219.598
225.182
230.765
236.345
241.918
247.479
253.024
258.549
264.05
269.52
274.958
280.356
285.712
291.022
296.282
301.488
306.638
311.729
316.76
321.726
326.629
331.465
336.236
340.939
345.576
350.143
354.643
359.073
363.432
367.718
371.928
376.059
380.104
384.05
387.874
391.554
395.073
398.417
401.6
404.683
407.827
411.26
414.616
417.537
420.57
423.101
425.616
427.839
430.263
432.882
435.376
437.439
439.069
440.709
443.125
444.246
445.13
446.435
447.896
448.507
448.587
448.466
448.58
447.618
446.453
444.781
442.587
439.899
436.69
432.935
428.616
423.716
418.23
412.153
405.493
398.272
390.515
382.248
373.517
364.381
354.89
345.101
335.064
324.823
314.431
303.968
293.474
283.126
273.314
263.915
254.782
245.855
237.134
228.634
220.37
212.36
204.584
196.996
189.651
182.542
175.62
168.936
162.487
156.289
150.361
144.7
139.302
134.165
129.286
124.659
120.276
116.131
112.215
108.522
105.04
101.772
98.6838
95.8349
93.097
90.7748
88.3134
87.3971
87.2224
21.7285
11.3347
9.45272
9.06121
9.20507
9.65136
10.3212
11.1928
12.2687
13.5616
15.0834
16.8359
18.7987
21.0175
23.4409
26.0152
28.6676
31.3873
34.198
37.1477
40.3041
43.6226
47.1082
50.7319
54.4654
58.2875
62.212
66.2488
70.381
74.6039
78.9146
83.298
87.7448
92.2432
96.8069
101.435
106.127
110.881
115.693
120.562
125.486
130.462
135.489
140.563
145.684
150.849
156.056
161.304
166.59
171.914
177.273
182.665
188.089
193.542
199.022
204.526
210.052
215.597
221.157
226.729
232.31
237.894
243.478
249.057
254.627
260.181
265.714
271.221
276.696
282.133
287.527
292.871
298.16
303.389
308.551
313.641
318.653
323.584
328.427
333.179
337.835
342.391
346.843
351.188
355.422
359.54
363.539
367.414
371.16
374.776
378.251
381.576
384.742
387.746
390.596
393.312
395.938
398.528
401.104
403.563
405.839
408.011
409.988
411.869
413.646
415.431
417.197
418.83
420.257
421.514
422.739
423.996
424.877
425.596
426.287
426.7
426.693
426.509
426.168
425.629
424.608
423.268
421.52
419.333
416.696
413.581
409.938
405.766
401.05
395.781
389.958
383.588
376.687
369.278
361.392
353.068
344.355
335.301
325.954
316.362
306.577
296.667
286.711
276.782
266.993
257.495
248.285
239.315
230.564
222.035
213.74
205.691
197.901
190.365
183.071
176.034
169.255
162.716
156.422
150.336
144.464
138.831
133.432
128.271
123.349
118.664
114.212
109.987
105.986
102.201
98.6289
95.2615
92.0976
89.121
86.3554
83.7545
81.4479
79.261
77.7143
77.1002
29.3889
15.0996
12.3368
11.644
11.6653
12.0798
12.7671
13.6833
14.8156
16.1635
17.7288
19.51
21.4998
23.6887
26.0533
28.5648
31.1968
33.9384
36.794
39.7778
42.9039
46.1696
49.5686
53.0885
56.7185
60.4519
64.2888
68.2285
72.266
76.3951
80.6112
84.9155
89.3071
93.7861
98.3513
102.998
107.722
112.523
117.396
122.34
127.353
132.431
137.574
142.777
148.04
153.36
158.736
164.164
169.644
175.174
180.752
186.375
192.043
197.753
203.502
209.289
215.11
220.962
226.843
232.748
238.674
244.615
250.568
256.525
262.483
268.434
274.372
280.289
286.179
292.034
297.845
303.605
309.306
314.938
320.495
325.966
331.344
336.621
341.789
346.84
351.768
356.564
361.223
365.74
370.107
374.319
378.372
382.261
385.982
389.531
392.907
396.102
399.116
401.948
404.61
407.117
409.497
411.772
413.942
415.98
417.865
419.61
421.203
422.672
424.03
425.306
426.481
427.525
428.428
429.202
429.865
430.44
430.85
431.005
430.915
430.709
430.301
429.685
428.863
427.795
426.388
424.657
422.554
420.051
417.12
413.736
409.854
405.461
400.542
395.085
389.088
382.557
375.504
367.951
359.93
351.477
342.636
333.453
323.978
314.268
304.391
294.416
284.42
274.475
264.664
255.068
245.71
236.582
227.684
219.022
210.609
202.458
194.577
186.969
179.631
172.568
165.779
159.256
152.997
146.982
141.208
135.662
130.322
125.204
120.31
115.641
111.192
106.963
102.952
99.1459
95.552
92.1634
88.9767
85.9832
83.1926
80.5898
78.2344
76.0849
74.3312
73.2558
36.938
18.9444
15.3022
14.295
14.1871
14.5482
15.2248
16.1495
17.2955
18.6519
20.2143
21.9778
23.9349
26.0745
28.3812
30.8379
33.4296
36.1471
38.9882
41.9552
45.0511
48.2756
51.6262
55.098
58.6869
62.3901
66.2064
70.1342
74.1718
78.3167
82.5673
86.9229
91.3829
95.9459
100.611
105.374
110.234
115.187
120.232
125.365
130.584
135.886
141.268
146.729
152.265
157.874
163.555
169.305
175.122
181.004
186.949
192.956
199.022
205.146
211.325
217.556
223.837
230.164
236.535
242.945
249.39
255.864
262.362
268.878
275.405
281.936
288.462
294.976
301.467
307.926
314.343
320.707
327.008
333.234
339.375
345.417
351.351
357.165
362.847
368.388
373.776
379.003
384.059
388.936
393.627
398.123
402.42
406.511
410.392
414.063
417.52
420.762
423.788
426.602
429.211
431.629
433.873
435.955
437.88
439.64
441.229
442.649
443.904
445.003
445.959
446.784
447.457
447.975
448.386
448.663
448.728
448.587
448.355
447.911
447.307
446.532
445.567
444.398
443.008
441.365
439.426
437.17
434.563
431.574
428.172
424.326
420.005
415.188
409.855
403.995
397.603
390.681
383.241
375.305
366.9
358.062
348.834
339.269
329.425
319.369
309.169
298.898
288.626
278.42
268.347
258.463
248.797
239.363
230.169
221.229
212.555
204.16
196.051
188.234
180.708
173.477
166.538
159.886
153.515
147.413
141.572
135.981
130.626
125.482
120.546
115.821
111.308
107.008
102.923
99.0428
95.3765
91.917
88.6608
85.6027
82.7471
80.0907
77.6641
75.4682
73.5895
72.1638
44.138
22.7089
18.2087
16.8813
16.6361
16.9292
17.5745
18.4831
19.6153
20.9524
22.4849
24.2059
26.1085
28.1839
30.422
32.8116
35.3433
38.0099
40.8079
43.7359
46.7942
49.9823
53.2995
56.7444
60.3159
64.0127
67.8347
71.7812
75.8517
80.0456
84.3624
88.8015
93.3623
98.0439
102.845
107.763
112.797
117.944
123.201
128.566
134.037
139.61
145.282
151.052
156.916
162.872
168.919
175.052
181.271
187.574
193.958
200.422
206.964
213.581
220.272
227.034
233.863
240.757
247.713
254.724
261.788
268.898
276.048
283.231
290.44
297.664
304.896
312.124
319.338
326.525
333.674
340.771
347.803
354.755
361.613
368.363
374.989
381.478
387.815
393.985
399.976
405.776
411.371
416.752
421.909
426.831
431.513
435.947
440.129
444.057
447.729
451.145
454.303
457.209
459.868
462.291
464.49
466.475
468.251
469.821
471.184
472.342
473.3
474.058
474.626
475.041
475.235
475.19
475.03
474.696
474.159
473.453
472.58
471.517
470.273
468.843
467.215
465.373
463.303
460.977
458.369
455.45
452.194
448.569
444.544
440.089
435.177
429.781
423.884
417.47
410.534
403.077
395.108
386.646
377.719
368.365
358.634
348.582
338.275
327.78
317.167
306.505
295.86
285.295
274.867
264.623
254.595
244.804
235.267
226
217.016
208.326
199.94
191.862
184.094
176.636
169.488
162.643
156.096
149.836
143.854
138.139
132.68
127.458
122.455
117.646
113.037
108.635
104.446
100.467
96.7009
93.1437
89.7929
86.6454
83.7029
80.9666
78.4538
76.1764
74.1852
72.4946
50.7891
26.2614
20.945
19.3001
18.9129
19.1281
19.729
20.6064
21.7092
23.0118
24.5008
26.1679
28.0069
30.0114
32.1749
34.4905
36.9521
39.555
42.2961
45.1736
48.1872
51.3366
54.6221
58.0435
61.6013
65.2956
69.1271
73.0962
77.2035
81.4494
85.8342
90.3581
95.0211
99.8226
104.762
109.838
115.049
120.392
125.867
131.47
137.2
143.052
149.026
155.118
161.325
167.645
174.077
180.617
187.264
194.015
200.87
207.825
214.88
222.032
229.278
236.617
244.045
251.559
259.155
266.829
274.575
282.387
290.259
298.182
306.148
314.146
322.166
330.195
338.221
346.23
354.207
362.136
370
377.783
385.466
393.032
400.463
407.741
414.848
421.766
428.479
434.97
441.226
447.231
452.974
458.443
463.629
468.524
473.121
477.419
481.415
485.107
488.496
491.584
494.378
496.886
499.116
501.078
502.779
504.223
505.415
506.359
507.059
507.505
507.676
507.601
507.31
506.8
506.083
505.153
504.004
502.649
501.09
499.322
497.347
495.16
492.755
490.12
487.242
484.102
480.679
476.95
472.891
468.473
463.67
458.453
452.796
446.676
440.072
432.97
425.364
417.252
408.644
399.56
390.03
380.097
369.813
359.238
348.436
337.474
326.421
315.343
304.301
293.354
282.552
271.939
261.547
251.402
241.524
231.93
222.636
213.651
204.983
196.638
188.617
180.921
173.548
166.492
159.748
153.305
147.154
141.284
135.684
130.339
125.232
120.333
115.617
111.102
106.798
102.707
98.8309
95.1671
91.7137
88.4681
85.4309
82.6042
79.9983
77.6256
75.521
73.6231
56.7297
29.4933
23.4234
21.4736
20.9446
21.0778
21.628
22.4673
23.5342
24.797
26.239
27.8509
29.6265
31.5614
33.6514
35.8928
38.2821
40.8165
43.4944
46.3145
49.2769
52.3817
55.6297
59.0218
62.5592
66.2433
70.0754
74.0572
78.1901
82.4754
86.9145
91.5083
96.2577
101.163
106.224
111.44
116.812
122.336
128.012
133.838
139.812
145.932
152.195
158.6
165.143
171.822
178.637
185.583
192.66
199.866
207.199
214.657
222.239
229.942
237.765
245.705
253.758
261.923
270.194
278.566
287.035
295.594
304.234
312.948
321.725
330.554
339.423
348.318
357.225
366.126
375.005
383.843
392.621
401.318
409.914
418.387
426.715
434.876
442.85
450.614
458.148
465.433
472.45
479.182
485.614
491.731
497.522
502.977
508.088
512.851
517.262
521.319
525.022
528.372
531.376
534.038
536.366
538.369
540.054
541.428
542.5
543.277
543.719
543.831
543.624
543.164
542.427
541.418
540.143
538.606
536.806
534.753
532.45
529.899
527.101
524.057
520.76
517.208
513.388
509.291
504.901
500.202
495.175
489.799
484.049
477.904
471.341
464.34
456.883
448.957
440.556
431.682
422.345
412.57
402.39
391.848
380.994
369.888
358.592
347.173
335.692
324.214
312.795
301.488
290.34
279.39
268.67
258.208
248.025
238.142
228.57
219.32
210.399
201.812
193.559
185.642
178.058
170.802
163.868
157.245
150.926
144.897
139.148
133.666
128.436
123.432
118.608
113.98
109.563
105.361
101.376
97.6075
94.0524
90.7089
87.5769
84.658
81.9583
79.487
77.2698
75.2044
61.8409
32.3237
25.5824
23.3501
22.6849
22.7376
23.2357
24.0355
25.0663
26.2911
27.69
29.252
30.9712
32.8438
34.8673
37.04
39.3604
41.8274
44.4405
47.1997
50.1056
53.1592
56.3617
59.715
63.2211
66.8822
70.7007
74.6791
78.8198
83.1253
87.5978
92.2393
97.0517
102.036
107.194
112.525
118.031
123.71
129.562
135.586
141.78
148.144
154.675
161.372
168.233
175.256
182.439
189.781
197.28
204.934
212.742
220.702
228.813
237.074
245.481
254.032
262.726
271.557
280.523
289.618
298.835
308.169
317.61
327.149
336.776
346.477
356.24
366.048
375.884
385.731
395.568
405.375
415.128
424.804
434.38
443.828
453.125
462.244
471.16
479.847
488.282
496.44
504.299
511.84
519.042
525.889
532.366
538.46
544.162
549.466
554.366
558.859
562.944
566.621
569.895
572.77
575.253
577.351
579.071
580.422
581.415
582.02
582.23
582.066
581.563
580.723
579.547
578.037
576.199
574.037
571.555
568.76
565.658
562.252
558.548
554.546
550.248
545.653
540.757
535.555
530.04
524.205
518.037
511.523
504.648
497.397
489.756
481.709
473.245
464.356
455.04
445.305
435.164
424.645
413.782
402.614
391.19
379.565
367.8
355.954
344.087
332.255
320.51
308.899
297.464
286.24
275.257
264.541
254.118
244.006
234.217
224.759
215.637
206.855
198.415
190.315
182.556
175.131
168.035
161.257
154.788
148.616
142.73
137.118
131.766
126.65
121.722
116.989
112.468
108.166
104.082
100.218
96.5693
93.135
89.9141
86.9074
84.1179
81.5516
79.2265
77.0223
66.0525
34.7014
27.3866
24.9039
24.1128
24.0924
24.5378
25.3001
26.2987
27.4913
28.855
30.3771
32.0509
33.8728
35.8412
37.9552
40.2148
42.6201
45.1717
47.8706
50.7183
53.7166
56.8676
60.1741
63.6388
67.265
71.0562
75.0156
79.147
83.4537
87.9391
92.6063
97.4583
102.498
107.727
113.147
118.761
124.568
130.569
136.766
143.156
149.741
156.518
163.487
170.647
177.997
185.534
193.259
201.169
209.264
217.542
226.002
234.642
243.461
252.458
261.629
270.971
280.482
290.156
299.989
309.973
320.102
330.367
340.756
351.259
361.861
372.546
383.299
394.1
404.928
415.762
426.576
437.346
448.045
458.644
469.115
479.428
489.554
499.463
509.125
518.512
527.596
536.352
544.754
552.781
560.411
567.628
574.415
580.761
586.656
592.095
597.073
601.586
605.636
609.223
612.353
615.03
617.261
619.052
620.412
621.34
621.811
621.843
621.455
620.656
619.449
617.839
615.826
613.417
610.612
607.42
603.842
599.888
595.562
590.871
585.819
580.413
574.654
568.547
562.093
555.295
548.153
540.667
532.833
524.648
516.107
507.208
497.945
488.319
478.33
467.987
457.298
446.283
434.972
423.402
411.603
399.62
387.503
375.307
363.087
350.895
338.779
326.784
314.951
303.314
291.904
280.745
269.861
259.284
249.028
239.103
229.513
220.263
211.355
202.789
194.566
186.684
179.139
171.925
165.031
158.447
152.162
146.165
140.445
134.987
129.768
124.743
119.921
115.315
110.929
106.764
102.82
99.0922
95.5799
92.2811
89.1961
86.3254
83.672
81.2482
78.9291
69.333
36.5989
28.8189
26.1226
25.2166
25.1324
25.5343
26.2654
27.2388
28.4079
29.747
31.2417
32.884
34.6701
36.5981
38.6677
40.8793
43.2339
45.733
48.3783
51.1723
54.1176
57.2174
60.4753
63.8952
67.4815
71.2388
75.1714
79.2838
83.5806
88.0662
92.745
97.6214
102.699
107.982
113.474
119.178
125.095
131.23
137.582
144.154
150.945
157.956
165.187
172.638
180.307
188.195
196.299
204.621
213.157
221.908
230.873
240.05
249.437
259.033
268.835
278.84
289.044
299.442
310.028
320.797
331.738
342.843
354.1
365.496
377.016
388.643
400.359
412.142
423.97
435.817
447.658
459.462
471.201
482.843
494.354
505.702
516.853
527.773
538.428
548.786
558.815
568.485
577.768
586.638
595.071
603.046
610.545
617.552
624.058
630.054
635.533
640.492
644.929
648.847
652.247
655.135
657.514
659.392
660.772
661.651
662.025
661.903
661.288
660.191
658.618
656.569
654.045
651.048
647.578
643.641
639.24
634.381
629.071
623.317
617.126
610.507
603.468
596.019
588.169
579.931
571.316
562.334
552.995
543.313
533.298
522.963
512.321
501.382
490.164
478.684
466.953
454.998
442.851
430.537
418.081
405.541
392.962
380.391
367.871
355.442
343.143
331.009
319.07
307.353
295.878
284.665
273.72
263.094
252.799
242.837
233.21
223.922
214.972
206.359
198.083
190.146
182.544
175.27
168.312
161.66
155.305
149.235
143.439
137.903
132.599
127.499
122.613
117.946
113.502
109.279
105.275
101.488
97.9153
94.5544
91.4048
88.4653
85.7369
83.2267
80.8148
71.6824
38.0102
29.8809
27.0148
26.0138
25.8768
26.2443
26.9526
27.9099
29.0664
30.3938
31.8759
33.5036
35.2719
37.1786
39.2231
41.4057
43.7279
46.1916
48.7993
51.554
54.4595
57.5199
60.7399
64.1247
67.68
71.4126
75.3266
79.427
83.7193
88.2092
92.9024
97.8048
102.922
108.26
113.823
119.617
125.646
131.915
138.428
145.187
152.193
159.448
166.952
174.707
182.712
190.967
199.471
208.224
217.225
226.472
235.966
245.705
255.686
265.907
276.366
287.058
297.979
309.125
320.487
332.059
343.831
355.792
367.93
380.23
392.677
405.251
417.932
430.697
443.521
456.376
469.234
482.062
494.827
507.495
520.028
532.39
544.544
556.451
568.074
579.377
590.324
600.882
611.019
620.705
629.914
638.62
646.804
654.449
661.54
668.068
674.025
679.407
684.211
688.438
692.09
695.171
697.684
699.633
701.024
701.856
702.124
701.834
700.968
699.556
697.597
695.086
692.023
688.405
684.233
679.505
674.228
668.403
662.037
655.137
647.714
639.775
631.338
622.414
613.025
603.191
592.936
582.284
571.264
559.908
548.244
536.306
524.133
511.742
499.153
486.338
473.4
460.381
447.328
434.296
421.299
408.322
395.399
382.566
369.857
357.302
344.929
332.762
320.824
309.131
297.699
286.537
275.653
265.115
254.914
245.043
235.502
226.29
217.405
208.846
200.601
192.689
185.106
177.84
170.882
164.22
157.846
151.749
145.92
140.34
134.984
129.847
124.93
120.235
115.762
111.509
107.473
103.65
100.038
96.6342
93.4374
90.4451
87.657
85.0757
82.5927
73.1302
38.9464
30.5886
27.6026
26.5319
26.3567
26.7022
27.3994
28.3532
29.5114
30.844
32.333
33.9679
35.7426
37.654
39.7009
41.8834
44.2027
46.6611
49.2613
52.0072
54.9033
57.9549
61.1685
64.5495
68.1034
71.8366
75.7558
79.8683
84.1813
88.7023
93.4387
98.3981
103.588
109.017
114.691
120.617
126.801
133.249
139.965
146.953
154.218
161.763
169.59
177.701
186.095
194.771
203.73
212.971
222.493
232.294
242.374
252.729
263.357
274.256
285.42
296.845
308.526
320.455
332.626
345.029
357.652
370.485
383.512
396.719
410.087
423.596
437.223
450.944
464.732
478.556
492.385
506.185
519.92
533.55
547.038
560.343
573.423
586.237
598.746
610.909
622.688
634.046
644.949
655.363
665.26
674.613
683.398
691.596
699.192
706.174
712.533
718.264
723.364
727.833
731.672
734.885
737.473
739.441
740.794
741.536
741.648
741.133
739.969
738.193
735.796
732.771
729.112
724.814
719.874
714.288
708.056
701.182
693.669
685.525
676.759
667.385
657.421
646.888
635.814
624.233
612.182
599.699
586.829
573.642
560.174
546.438
532.455
518.361
504.228
490.221
476.248
462.337
448.538
434.934
421.382
407.974
394.743
381.713
368.902
356.327
344
331.932
320.132
308.608
297.363
286.397
275.685
265.328
255.301
245.6
236.22
227.16
218.418
209.989
201.863
194.071
186.597
179.425
172.544
165.942
159.614
153.541
147.726
142.144
136.792
131.665
126.759
122.075
117.609
113.358
109.319
105.488
101.861
98.4378
95.2146
92.1886
89.3588
86.7242
84.1915
73.703
39.4248
30.9664
27.9178
26.8097
26.6175
26.9598
27.6643
28.6346
29.8172
31.1806
32.7057
34.3806
36.1981
38.1542
40.2467
42.4753
44.8408
47.3454
49.9922
52.7857
55.7313
58.8334
62.0974
65.5304
69.1403
72.935
76.9229
81.1133
85.5154
90.1389
94.9931
100.088
105.434
111.039
116.913
123.064
129.5
136.227
143.252
150.579
158.214
166.16
174.42
182.997
191.891
201.1
210.626
220.465
230.615
241.076
251.843
262.913
274.281
285.943
297.893
310.123
322.627
335.394
348.417
361.682
375.178
388.89
402.804
416.9
431.16
445.561
460.08
474.69
489.363
504.066
518.766
533.426
548.008
562.472
576.775
590.875
604.729
618.293
631.525
644.383
656.826
668.815
680.315
691.29
701.709
711.544
720.77
729.366
737.314
744.602
751.219
757.159
762.42
767.001
770.903
774.128
776.678
778.556
779.768
780.311
780.178
779.335
777.784
775.551
772.622
768.987
764.634
759.557
753.745
747.195
739.9
731.863
723.084
713.572
703.335
692.392
680.763
668.478
655.57
642.096
628.103
613.645
598.726
583.401
567.827
552.167
536.589
521.054
505.707
490.371
475.208
460.277
445.623
431.277
417.223
403.479
390.056
376.959
364.191
351.749
339.628
327.822
316.327
305.136
294.244
283.645
273.336
263.336
253.648
244.269
235.194
226.42
217.943
209.758
201.839
194.236
186.929
179.906
173.158
166.67
160.439
154.448
148.703
143.194
137.914
132.854
128.008
123.377
118.958
114.746
110.737
106.927
103.314
99.896
96.6697
93.6316
90.7805
88.1122
85.5517
73.5642
39.5094
31.0732
28.0239
26.9148
26.735
27.1051
27.8505
28.8748
30.124
31.566
33.1806
34.9548
36.8805
38.9528
41.1688
43.5276
46.0296
48.6764
51.4707
54.4164
57.5177
60.7812
64.2135
67.8229
71.6181
75.6091
79.8061
84.2204
88.8632
93.7465
98.8818
104.281
109.956
115.919
122.179
128.746
135.629
142.838
150.377
158.254
166.473
175.035
183.943
193.201
202.809
212.763
223.063
233.703
244.681
255.991
267.628
279.585
291.854
304.428
317.296
330.45
343.876
357.564
371.5
385.67
400.06
414.652
429.429
444.372
459.459
474.667
489.971
505.343
520.755
536.172
551.562
566.885
582.104
597.176
612.058
626.706
641.078
655.128
668.813
682.092
694.924
707.268
719.089
730.351
741.024
751.076
760.483
769.222
777.275
784.628
791.268
797.191
802.391
806.87
810.628
813.666
815.984
817.586
818.485
818.643
818.093
816.739
814.639
811.78
808.15
803.733
798.514
792.479
785.618
777.921
769.38
759.992
749.758
738.684
726.784
714.073
700.586
686.356
671.418
655.757
639.451
622.646
605.56
588.323
570.952
553.654
536.254
518.982
501.961
485.238
468.895
452.993
437.57
422.648
408.221
394.286
380.832
367.844
355.3
343.178
331.452
320.1
309.099
298.429
288.072
278.015
268.248
258.772
249.584
240.682
232.058
223.707
215.627
207.813
200.255
192.963
185.935
179.16
172.632
166.34
160.275
154.429
148.822
143.443
138.284
133.338
128.594
124.064
119.736
115.604
111.663
107.908
104.339
100.953
97.7488
94.7217
91.8711
89.1898
86.6235
72.9355
39.3431
31.0033
28.0102
26.9594
26.8525
27.3137
28.1683
29.3215
30.7198
32.3311
34.1352
36.1193
38.2748
40.596
43.0797
45.7243
48.5298
51.4973
54.6294
57.9299
61.4037
65.0573
68.8981
72.9352
77.1782
81.6383
86.327
91.2569
96.441
101.893
107.625
113.653
119.989
126.647
133.637
140.969
148.652
156.695
165.106
173.887
183.042
192.57
202.472
212.742
223.38
234.381
245.741
257.453
269.507
281.896
294.608
307.633
320.958
334.569
348.452
362.593
376.974
391.58
406.395
421.4
436.579
451.912
467.38
482.962
498.638
514.384
530.176
545.987
561.789
577.549
593.236
608.813
624.241
639.481
654.491
669.229
683.652
697.719
711.388
724.62
737.376
749.617
761.31
772.419
782.915
792.768
801.953
810.448
818.233
825.292
831.613
837.187
842.011
846.085
849.409
851.982
853.803
854.873
855.195
854.783
853.542
851.483
848.615
844.918
840.376
834.967
828.674
821.477
813.362
804.315
794.327
783.391
771.506
758.682
744.934
730.27
714.667
698.169
680.887
663.012
644.655
625.859
606.85
587.479
568.003
548.584
529.32
510.357
491.829
473.832
456.451
439.746
423.748
408.467
393.888
379.986
366.727
354.073
341.979
330.398
319.285
308.595
298.291
288.336
278.7
269.361
260.301
251.51
242.981
234.706
226.676
218.885
211.33
204.007
196.908
190.034
183.387
176.955
170.736
164.73
158.935
153.348
147.972
142.804
137.839
133.069
128.486
124.097
119.895
115.876
112.033
108.363
104.871
101.549
98.3964
95.4074
92.5828
89.9121
87.3636
71.5848
38.8363
30.7676
27.9516
27.0599
27.1089
27.7534
28.82
30.2181
31.8963
33.8238
35.9812
38.3561
40.94
43.7276
46.7153
49.9016
53.2858
56.8686
60.6522
64.6403
68.8375
73.2498
77.8841
82.7487
87.8533
93.2084
98.8257
104.717
110.896
117.375
124.169
131.292
138.76
146.587
154.777
163.337
172.272
181.584
191.275
201.35
211.807
222.646
233.862
245.449
257.396
269.696
282.336
295.303
308.583
322.161
336.022
350.147
364.521
379.121
393.931
408.928
424.092
439.404
454.845
470.395
486.035
501.746
517.508
533.305
549.114
564.917
580.692
596.416
612.065
627.611
643.026
658.277
673.33
688.15
702.698
716.937
730.829
744.338
757.426
770.057
782.197
793.811
804.867
815.334
825.183
834.387
842.922
850.765
857.896
864.295
869.95
874.849
878.987
882.364
884.977
886.828
887.902
888.212
887.787
886.53
884.425
881.471
877.651
872.941
867.317
860.755
853.23
844.722
835.21
824.676
813.112
800.508
786.855