/*--------------------------------*- C++ -*----------------------------------*\
  =========                 |
  \\      /  F ield         | OpenFOAM: The Open Source CFD Toolbox
   \\    /   O peration     | Website:  https://openfoam.org
    \\  /    A nd           | Version:  7
     \\/     M anipulation  |
\*---------------------------------------------------------------------------*/
FoamFile
{
    version     2.0;
    format      ascii;
    class       volScalarField;
    location    "100";
    object      k;
}
// * * * * * * * * * * * * * * * * * * * * * * * * * * * * * * * * * * * * * //

dimensions      [0 2 -2 0 0 0 0];

internalField   nonuniform List<scalar> 
12225
(
0.362814
0.344001
0.327732
0.309838
0.295373
0.283524
0.275462
0.270313
0.270358
0.271935
0.276091
0.28083
0.290007
0.295965
0.307107
0.31329
0.326947
0.324021
0.440192
0.468696
0.461605
0.448377
0.450365
0.45834
0.474462
0.498846
0.524371
0.552605
0.580943
0.606925
0.634508
0.655108
0.681387
0.695248
0.723945
0.728361
0.390545
0.417868
0.42023
0.416824
0.411632
0.407808
0.408017
0.410058
0.414545
0.421523
0.43082
0.439911
0.451495
0.461562
0.473568
0.484622
0.495289
0.509471
0.377546
0.38698
0.391407
0.391342
0.390222
0.387897
0.385663
0.384085
0.382885
0.38291
0.383383
0.38443
0.386378
0.388583
0.391147
0.394624
0.397192
0.402222
0.374562
0.376089
0.378413
0.378665
0.378263
0.377204
0.375489
0.373736
0.372011
0.370453
0.369261
0.368117
0.367399
0.366853
0.366491
0.366492
0.36657
0.367095
0.373815
0.372709
0.372645
0.372383
0.371761
0.370814
0.369553
0.368079
0.366569
0.364972
0.363523
0.36206
0.360748
0.359537
0.358399
0.357461
0.356494
0.355903
0.373783
0.371742
0.370386
0.369286
0.368234
0.367112
0.365913
0.364583
0.363234
0.361802
0.360414
0.359015
0.357665
0.356372
0.355106
0.353959
0.352792
0.351824
0.37382
0.37156
0.369635
0.367976
0.3665
0.365106
0.363774
0.362426
0.361103
0.35976
0.358441
0.357133
0.355849
0.354606
0.353381
0.35223
0.35108
0.350042
0.373832
0.371553
0.369449
0.367525
0.365776
0.364152
0.362643
0.361196
0.359813
0.358467
0.357161
0.355892
0.354653
0.353458
0.352288
0.351174
0.350076
0.349055
0.373831
0.37156
0.369418
0.367405
0.365529
0.363772
0.362131
0.360583
0.359118
0.357722
0.356387
0.355108
0.353876
0.352695
0.351552
0.350463
0.349401
0.348404
0.373829
0.371561
0.369413
0.367378
0.365458
0.363645
0.361936
0.360322
0.358795
0.357348
0.355973
0.354664
0.353415
0.352224
0.351081
0.349994
0.348945
0.347957
0.373828
0.371559
0.369409
0.367371
0.365439
0.363608
0.361875
0.360232
0.358675
0.357198
0.355795
0.354462
0.353193
0.351986
0.350833
0.349737
0.348686
0.347693
0.373827
0.371557
0.369405
0.367365
0.36543
0.363593
0.36185
0.360196
0.358624
0.357132
0.355712
0.354364
0.35308
0.351859
0.350694
0.349588
0.34853
0.347528
0.373827
0.371555
0.369402
0.36736
0.365423
0.363583
0.361837
0.360177
0.3586
0.3571
0.355673
0.354315
0.353022
0.351792
0.35062
0.349504
0.348439
0.347428
0.373826
0.371553
0.369399
0.367355
0.365416
0.363575
0.361826
0.360165
0.358585
0.357081
0.355651
0.354289
0.352993
0.351758
0.350581
0.34946
0.348391
0.347373
0.373826
0.371552
0.369396
0.367351
0.36541
0.363568
0.361818
0.360154
0.358572
0.357068
0.355635
0.354272
0.352973
0.351737
0.350557
0.349434
0.348362
0.347341
0.373825
0.371551
0.369394
0.367348
0.365406
0.363562
0.361811
0.360146
0.358563
0.357057
0.355623
0.354258
0.352959
0.35172
0.35054
0.349414
0.348341
0.347317
0.373825
0.371551
0.369393
0.367346
0.365404
0.363559
0.361806
0.36014
0.358556
0.357049
0.355614
0.354248
0.352947
0.351707
0.350526
0.349399
0.348324
0.347299
0.373825
0.37155
0.369393
0.367346
0.365403
0.363557
0.361804
0.360138
0.358553
0.357045
0.35561
0.354243
0.352942
0.351701
0.350519
0.349391
0.348316
0.347289
0.373825
0.371551
0.369394
0.367346
0.365404
0.363559
0.361807
0.36014
0.358556
0.357048
0.355614
0.354247
0.352946
0.351704
0.350523
0.349394
0.348319
0.347293
0.373825
0.371552
0.369395
0.367349
0.365407
0.363564
0.361811
0.360147
0.358563
0.357057
0.355623
0.354259
0.352958
0.35172
0.350539
0.349413
0.34834
0.347316
0.373826
0.371553
0.369397
0.367352
0.365413
0.363571
0.361823
0.360162
0.358585
0.357085
0.355659
0.354301
0.35301
0.351779
0.350607
0.349489
0.348424
0.347406
0.373826
0.371554
0.369399
0.36736
0.365429
0.363603
0.361876
0.360241
0.358692
0.357222
0.355826
0.354496
0.353231
0.352023
0.350871
0.349768
0.348718
0.347708
0.373828
0.371551
0.369412
0.367417
0.365556
0.36382
0.36219
0.360652
0.359191
0.357796
0.356459
0.355175
0.35394
0.35275
0.351606
0.350501
0.349443
0.348418
0.373823
0.371554
0.369605
0.367893
0.36634
0.364893
0.363496
0.362123
0.360763
0.359416
0.358083
0.356773
0.355492
0.354242
0.353034
0.351861
0.35074
0.349653
0.373788
0.371991
0.371113
0.370266
0.369361
0.368312
0.367049
0.365631
0.364122
0.362577
0.361032
0.359525
0.358076
0.356685
0.355385
0.354145
0.353014
0.351928
0.374355
0.375572
0.377776
0.377858
0.377288
0.375886
0.373836
0.371642
0.369506
0.367483
0.365664
0.364083
0.36271
0.361533
0.360608
0.359814
0.359285
0.358793
0.379125
0.394297
0.39825
0.396574
0.392539
0.387604
0.383646
0.380448
0.378266
0.376849
0.37649
0.376732
0.377403
0.378672
0.380416
0.38239
0.384785
0.387086
0.408394
0.42754
0.422415
0.411054
0.402225
0.397919
0.398619
0.400952
0.406049
0.413026
0.420956
0.429773
0.438762
0.4481
0.457194
0.466417
0.47516
0.483994
0.36605
0.353415
0.341989
0.330209
0.318983
0.30838
0.299412
0.29167
0.285403
0.28033
0.276677
0.273857
0.272298
0.271154
0.271183
0.271437
0.272144
0.273325
0.0121224
0.035052
0.0524032
0.0677458
0.0816605
0.0944556
0.106329
0.117078
0.126338
0.133536
0.137952
0.138728
0.133306
0.126769
0.116282
0.088234
0.0905192
0.0990297
0.110382
0.120856
0.139659
0.151338
0.168232
0.182237
0.197485
0.213583
0.230568
0.248242
0.26657
0.285354
0.304563
0.324012
0.343686
0.363418
0.383211
0.402923
0.422583
0.442066
0.461423
0.480547
0.499502
0.518196
0.536705
0.554949
0.573006
0.590802
0.608413
0.625772
0.64295
0.659888
0.676651
0.693183
0.709542
0.725676
0.741636
0.75737
0.772924
0.788253
0.803393
0.818302
0.83301
0.847485
0.861741
0.87576
0.889543
0.903086
0.916375
0.929421
0.942197
0.954726
0.96697
0.978972
0.990684
1.00218
1.01338
1.02439
1.03513
1.0457
1.05604
1.06626
1.07628
1.08624
1.09603
1.10583
1.1155
1.12523
1.13488
1.14465
1.15442
1.16433
1.17432
1.18429
1.19413
1.20354
1.21197
1.21813
1.21752
1.22636
1.24719
1.24906
1.26919
1.27261
1.28891
1.28811
1.30946
1.31139
1.32181
1.32856
1.32767
1.3347
1.3413
1.3492
1.35355
1.35776
1.3711
1.37016
1.37197
1.36937
1.3703
1.37149
1.37517
1.37054
1.36667
1.35992
1.35226
1.34311
1.33259
1.32073
1.30739
1.29258
1.2763
1.25863
1.23959
1.21929
1.19776
1.17483
1.15083
1.12584
1.1
1.07347
1.04637
1.01868
0.990862
0.96338
0.934843
0.90888
0.889725
0.871928
0.854253
0.836599
0.819047
0.801635
0.784463
0.767495
0.750545
0.733762
0.717598
0.701872
0.686319
0.671065
0.656234
0.641928
0.628157
0.614866
0.602069
0.589782
0.577999
0.566701
0.555893
0.545547
0.535654
0.526156
0.517084
0.508197
0.499895
0.490949
0.483557
0.472775
0.464799
0.438612
0.0273475
0.0634151
0.087716
0.106247
0.122083
0.136269
0.149211
0.161138
0.172095
0.182005
0.190865
0.199119
0.208481
0.217493
0.22576
0.23401
0.247607
0.264758
0.284483
0.306808
0.332653
0.36012
0.387579
0.414597
0.442699
0.472062
0.502627
0.534273
0.566873
0.600276
0.634372
0.66902
0.704116
0.739527
0.775163
0.810911
0.846708
0.882464
0.918135
0.953656
0.989004
1.02413
1.05903
1.09367
1.12806
1.16217
1.19601
1.22957
1.26285
1.29585
1.32857
1.36101
1.39316
1.42501
1.45657
1.48781
1.51874
1.54934
1.57959
1.60948
1.639
1.66811
1.69681
1.72507
1.75287
1.7802
1.80702
1.83332
1.8591
1.88433
1.90901
1.93307
1.9565
1.97931
2.00147
2.02301
2.04391
2.0642
2.08388
2.103
2.12156
2.13962
2.1572
2.17436
2.19112
2.20756
2.2237
2.23963
2.25538
2.27109
2.28676
2.3024
2.31798
2.33345
2.34878
2.3639
2.37899
2.39543
2.41206
2.42725
2.44481
2.46034
2.47737
2.49273
2.50993
2.52451
2.53922
2.55294
2.56605
2.58021
2.59391
2.60603
2.61846
2.63068
2.64179
2.64988
2.65666
2.66831
2.67499
2.67716
2.68106
2.68329
2.68588
2.68311
2.67828
2.67097
2.66113
2.64869
2.63365
2.61555
2.59438
2.57013
2.54284
2.51258
2.47945
2.44354
2.40513
2.36443
2.32165
2.27704
2.23085
2.18329
2.13453
2.08514
2.03528
1.98474
1.93454
1.88444
1.83451
1.785
1.73613
1.68809
1.64099
1.5947
1.54871
1.50377
1.46018
1.41809
1.37722
1.33746
1.29903
1.2621
1.22662
1.19246
1.15965
1.12822
1.09814
1.06935
1.04184
1.01558
0.990496
0.966539
0.943657
0.92172
0.900819
0.880385
0.861658
0.841104
0.826075
0.785725
0.0493438
0.0969025
0.126121
0.148153
0.166972
0.184024
0.200027
0.215431
0.23058
0.245793
0.261463
0.278094
0.296129
0.315201
0.33532
0.356837
0.380394
0.405859
0.433094
0.46216
0.493181
0.525926
0.560264
0.595791
0.63253
0.670524
0.70972
0.74999
0.791204
0.833237
0.875973
0.919286
0.963062
1.00718
1.05154
1.09605
1.14062
1.18518
1.22968
1.27406
1.31829
1.36234
1.40619
1.44981
1.49319
1.53633
1.5792
1.62181
1.66416
1.70623
1.74802
1.78954
1.83077
1.87171
1.91235
1.95267
1.99267
2.03233
2.07162
2.11054
2.14906
2.18716
2.2248
2.26196
2.29862
2.33474
2.3703
2.40525
2.43957
2.47324
2.50622
2.53848
2.57
2.60074
2.63071
2.65987
2.68822
2.71575
2.74247
2.76838
2.79349
2.81783
2.84139
2.86423
2.88636
2.90781
2.92863
2.94886
2.96855
2.98777
3.00655
3.0249
3.0428
3.06028
3.07734
3.09401
3.11042
3.12675
3.14281
3.15869
3.1748
3.19024
3.20586
3.22088
3.23598
3.2503
3.26445
3.2783
3.29177
3.30527
3.31826
3.33037
3.34258
3.35436
3.36477
3.37413
3.38272
3.39096
3.39687
3.39929
3.40103
3.40149
3.40004
3.39529
3.38774
3.37715
3.36336
3.34619
3.32551
3.30112
3.27296
3.24101
3.20531
3.16594
3.12303
3.07677
3.02739
2.97515
2.92032
2.86318
2.80399
2.74302
2.68055
2.61713
2.55341
2.48959
2.42597
2.36257
2.29953
2.2371
2.17551
2.11496
2.0556
1.99749
1.94058
1.8851
1.83121
1.77904
1.72832
1.6787
1.63069
1.58447
1.54
1.49703
1.45569
1.41604
1.37802
1.34157
1.30671
1.27337
1.24151
1.21105
1.18196
1.15413
1.12759
1.10204
1.07821
1.05411
1.03613
1.00359
0.0742505
0.131931
0.166361
0.192323
0.21449
0.23466
0.253785
0.272492
0.29127
0.310538
0.330689
0.352078
0.374954
0.399339
0.425238
0.452687
0.481745
0.512404
0.544701
0.578739
0.614632
0.652393
0.691912
0.732971
0.775438
0.819215
0.864196
0.910272
0.957343
1.00529
1.054
1.10336
1.15324
1.20354
1.25415
1.30498
1.35597
1.40704
1.45812
1.50918
1.56018
1.61107
1.66182
1.71242
1.76284
1.81308
1.86311
1.91292
1.96251
2.01187
2.061
2.10988
2.15851
2.20687
2.25496
2.30276
2.35026
2.39744
2.44428
2.49076
2.53684
2.5825
2.62772
2.67244
2.71665
2.7603
2.80334
2.84574
2.88746
2.92845
2.96866
3.00807
3.04663
3.08429
3.12103
3.15681
3.19161
3.2254
3.25815
3.28987
3.32053
3.35014
3.3787
3.40622
3.43272
3.45821
3.48272
3.50627
3.52891
3.5507
3.57165
3.5918
3.61115
3.62972
3.64756
3.66471
3.68127
3.69731
3.71287
3.72803
3.74281
3.75706
3.77097
3.78439
3.79746
3.81005
3.82227
3.83411
3.84552
3.85661
3.8672
3.8772
3.88682
3.89578
3.90372
3.91071
3.91666
3.92131
3.92351
3.92347
3.92246
3.91951
3.91418
3.90591
3.89457
3.87994
3.86178
3.83989
3.81409
3.78422
3.75019
3.71197
3.6696
3.62316
3.57279
3.51869
3.4611
3.40031
3.33659
3.27024
3.20159
3.13106
3.0591
2.98625
2.91307
2.83987
2.76689
2.69427
2.62221
2.55093
2.48067
2.41164
2.34401
2.27788
2.21332
2.15047
2.0894
2.03023
1.97289
1.91725
1.86345
1.81161
1.76167
1.71313
1.66637
1.62149
1.57834
1.53691
1.49723
1.45922
1.42286
1.38807
1.35482
1.32305
1.29275
1.26382
1.23666
1.21031
1.18922
1.15967
0.100259
0.166776
0.206805
0.236966
0.262622
0.2859
0.307945
0.329506
0.351149
0.37334
0.396474
0.420874
0.446779
0.474316
0.503536
0.534446
0.567047
0.601346
0.637386
0.67523
0.714935
0.756496
0.799837
0.844828
0.891348
0.939279
0.988515
1.03895
1.09047
1.14295
1.1963
1.25038
1.30509
1.36032
1.416
1.47202
1.52833
1.58484
1.6415
1.69826
1.75507
1.81188
1.86866
1.92539
1.98204
2.03858
2.095
2.15128
2.20741
2.26337
2.31917
2.37478
2.43019
2.4854
2.54039
2.59514
2.64963
2.70385
2.75778
2.81138
2.86462
2.91747
2.9699
3.02186
3.0733
3.12419
3.17446
3.22406
3.27294
3.32105
3.36832
3.4147
3.46012
3.50454
3.54789
3.59013
3.6312
3.67106
3.70968
3.74701
3.78302
3.8177
3.85103
3.883
3.91361
3.94286
3.97076
3.99733
4.02261
4.04662
4.06942
4.09102
4.11144
4.13073
4.14893
4.16611
4.18234
4.19769
4.21224
4.22604
4.23909
4.2514
4.26304
4.27401
4.28437
4.29413
4.30329
4.31187
4.31987
4.32737
4.33432
4.34067
4.34626
4.35097
4.35489
4.35787
4.35916
4.35884
4.35704
4.35357
4.34841
4.34116
4.33143
4.31885
4.30315
4.28407
4.26134
4.23474
4.20405
4.16911
4.12981
4.08611
4.03801
3.9856
3.92901
3.86844
3.80414
3.73637
3.66545
3.59176
3.51573
3.43784
3.35858
3.27847
3.19801
3.11754
3.03734
2.9576
2.87856
2.80045
2.72351
2.64796
2.57395
2.50163
2.43111
2.36249
2.29585
2.23127
2.16871
2.10815
2.04963
1.99319
1.93881
1.88633
1.83579
1.78726
1.74046
1.6954
1.65219
1.61073
1.57099
1.53295
1.49655
1.46177
1.42863
1.39709
1.36742
1.33925
1.31553
1.28523
0.125892
0.200443
0.245956
0.280301
0.309393
0.335647
0.360364
0.384388
0.40835
0.432753
0.458017
0.484483
0.512414
0.541988
0.573311
0.606434
0.641384
0.678178
0.716841
0.757397
0.799858
0.844199
0.890362
0.938254
0.987772
1.03881
1.09126
1.14501
1.19996
1.25599
1.313
1.37088
1.42953
1.48886
1.54879
1.60922
1.67008
1.73131
1.79284
1.85461
1.91657
1.97868
2.04089
2.10316
2.16547
2.22779
2.2901
2.35236
2.41458
2.47673
2.53879
2.60075
2.66261
2.72433
2.78592
2.84735
2.9086
2.96965
3.03047
3.09103
3.15129
3.21122
3.27078
3.3299
3.38855
3.44666
3.50416
3.561
3.6171
3.67239
3.7268
3.78024
3.83264
3.88393
3.93403
3.98285
4.03034
4.07642
4.12102
4.16409
4.20558
4.24545
4.28365
4.32015
4.35495
4.38802
4.41936
4.44898
4.47689
4.50314
4.52775
4.55075
4.57217
4.59206
4.61046
4.62746
4.64311
4.6575
4.6707
4.68275
4.6937
4.70358
4.71243
4.72031
4.7273
4.73344
4.73868
4.74304
4.74664
4.74952
4.75173
4.75332
4.75375
4.75288
4.75127
4.74863
4.74459
4.73922
4.73235
4.72384
4.71352
4.7011
4.68626
4.66866
4.64802
4.62404
4.59645
4.56499
4.52943
4.48959
4.44533
4.39659
4.34335
4.28567
4.22367
4.15755
4.08753
4.01393
3.93712
3.85753
3.77564
3.69194
3.60693
3.5211
3.4349
3.34871
3.26281
3.17746
3.09291
3.00939
2.92716
2.84642
2.76735
2.69009
2.61479
2.54153
2.4704
2.40144
2.33468
2.27009
2.20768
2.14748
2.08945
2.03353
1.97972
1.92802
1.87832
1.83058
1.78479
1.74071
1.6984
1.65783
1.61897
1.58183
1.54643
1.51279
1.48113
1.45137
1.4254
1.39473
0.150329
0.231895
0.282514
0.320829
0.353188
0.382239
0.409405
0.435611
0.461536
0.487722
0.514618
0.542595
0.57195
0.602906
0.635619
0.670191
0.706681
0.745125
0.785542
0.827938
0.872303
0.918604
0.966784
1.01677
1.06846
1.12177
1.17661
1.23285
1.29042
1.3492
1.4091
1.47001
1.53186
1.59455
1.658
1.72213
1.78687
1.85214
1.91788
1.98402
2.05052
2.11733
2.18438
2.25166
2.3191
2.3867
2.45441
2.52221
2.59009
2.65801
2.72597
2.79395
2.86193
2.92989
2.99782
3.06569
3.1335
3.2012
3.26877
3.33617
3.40337
3.47032
3.53697
3.60326
3.66913
3.73451
3.79933
3.86351
3.92696
3.98959
4.0513
4.11201
4.17161
4.23
4.28709
4.34276
4.39693
4.4495
4.50038
4.54948
4.59673
4.64206
4.68541
4.72673
4.76597
4.80311
4.83813
4.87101
4.90177
4.93042
4.957
4.98153
5.00404
5.02458
5.0432
5.05998
5.07498
5.08829
5.09996
5.11007
5.11867
5.12581
5.13151
5.13584
5.13894
5.14097
5.14166
5.14101
5.13943
5.13687
5.13334
5.12881
5.1231
5.11626
5.10836
5.09932
5.08902
5.07737
5.06429
5.04961
5.03317
5.0147
4.99393
4.97057
4.94434
4.91493
4.88207
4.84546
4.80489
4.76013
4.71103
4.65748
4.59946
4.53699
4.47017
4.3992
4.32434
4.24593
4.16438
4.08011
3.99362
3.90538
3.81589
3.7256
3.63496
3.54432
3.45401
3.36429
3.27544
3.18771
3.10133
3.01651
2.93345
2.8523
2.77318
2.69622
2.62147
2.549
2.47883
2.41095
2.34537
2.28209
2.22108
2.16229
2.10571
2.05134
1.99911
1.94899
1.90092
1.85477
1.81051
1.76804
1.72727
1.68827
1.65107
1.61574
1.58245
1.55126
1.52338
1.4922
0.172888
0.260354
0.315524
0.357449
0.392814
0.424446
0.453862
0.482044
0.50971
0.537431
0.565682
0.594859
0.625294
0.657245
0.690913
0.726437
0.763912
0.803394
0.844911
0.888468
0.934049
0.981619
1.03112
1.0825
1.13566
1.19053
1.24702
1.30503
1.36449
1.42528
1.48734
1.55057
1.61489
1.68022
1.74649
1.8136
1.88151
1.95013
2.0194
2.08926
2.15965
2.23051
2.3018
2.37348
2.44549
2.51781
2.59041
2.66325
2.73631
2.80957
2.883
2.9566
3.03034
3.1042
3.17817
3.25222
3.32633
3.40047
3.4746
3.5487
3.62271
3.69659
3.77028
3.84371
3.91682
3.98952
4.06172
4.13333
4.20425
4.27438
4.34359
4.41178
4.47881
4.54457
4.60893
4.67175
4.73293
4.79232
4.84982
4.90531
4.95869
5.00986
5.05873
5.10523
5.14929
5.19086
5.2299
5.26638
5.3003
5.33167
5.3605
5.38682
5.41064
5.43203
5.45103
5.46771
5.48214
5.4944
5.50456
5.51269
5.51883
5.52316
5.52549
5.52601
5.5248
5.52211
5.51778
5.51193
5.50466
5.49605
5.48615
5.47495
5.46244
5.44865
5.43363
5.41736
5.39979
5.38088
5.36055
5.33868
5.31512
5.28968
5.26212
5.23219
5.19962
5.16413
5.12544
5.08328
5.03737
4.98751
4.9335
4.87522
4.81261
4.74569
4.67456
4.59943
4.52055
4.43828
4.353
4.26514
4.17517
4.08355
3.99073
3.89716
3.80324
3.70934
3.61578
3.52285
3.43082
3.33996
3.2505
3.16264
3.07658
2.99246
2.91044
2.83062
2.75309
2.67788
2.60503
2.53455
2.46643
2.40068
2.33728
2.27617
2.21734
2.16076
2.10642
2.05427
2.00425
1.95628
1.9103
1.86623
1.82402
1.7836
1.745
1.70831
1.67366
1.64121
1.6117
1.57989
0.193028
0.285268
0.344334
0.389423
0.427469
0.461436
0.492905
0.522897
0.552156
0.581269
0.610729
0.640949
0.672282
0.705014
0.739374
0.775535
0.813618
0.853701
0.89583
0.940017
0.986253
1.03451
1.08474
1.13688
1.19088
1.24665
1.30412
1.36322
1.42386
1.48597
1.54948
1.6143
1.68037
1.74761
1.81596
1.88534
1.95568
2.02693
2.09901
2.17187
2.24545
2.31969
2.39455
2.46997
2.54592
2.62236
2.69925
2.77656
2.85426
2.93234
3.01076
3.08952
3.16858
3.24794
3.32758
3.40746
3.48757
3.56786
3.64832
3.7289
3.80954
3.8902
3.97081
4.0513
4.13159
4.21159
4.29119
4.37029
4.44878
4.52652
4.60338
4.67923
4.75391
4.82728
4.89918
4.96945
5.03795
5.10451
5.169
5.23125
5.29115
5.34856
5.40336
5.45545
5.50474
5.55116
5.59463
5.63512
5.6726
5.70706
5.7385
5.76695
5.79241
5.81493
5.83457
5.85138
5.86545
5.87683
5.88562
5.89189
5.89557
5.89687
5.89581
5.89251
5.88705
5.87955
5.87003
5.85857
5.84527
5.83022
5.81349
5.79515
5.77523
5.7538
5.73092
5.70662
5.68092
5.65382
5.62528
5.59524
5.5636
5.53023
5.49495
5.45756
5.41782
5.37548
5.33029
5.28198
5.23029
5.17498
5.11586
5.0528
4.98572
4.91464
4.83967
4.76098
4.67884
4.59355
4.50548
4.41504
4.32264
4.22871
4.13368
4.03794
3.94189
3.84587
3.75019
3.65515
3.56105
3.46813
3.37662
3.28672
3.19862
3.11247
3.02842
2.94659
2.86706
2.78987
2.71506
2.64265
2.57263
2.50501
2.43977
2.37687
2.31629
2.25799
2.20196
2.14817
2.09656
2.04706
1.99962
1.95418
1.91069
1.86912
1.82947
1.79171
1.75597
1.72241
1.69151
1.65903
0.210369
0.306301
0.36857
0.416331
0.456696
0.492721
0.526033
0.557678
0.588409
0.618821
0.649409
0.680595
0.712739
0.746141
0.781047
0.81765
0.856092
0.896472
0.938851
0.983257
1.02969
1.07814
1.12857
1.18094
1.23518
1.29125
1.34908
1.40862
1.46979
1.53253
1.59679
1.6625
1.72959
1.79801
1.8677
1.93859
2.01062
2.08374
2.15789
2.23301
2.30904
2.38594
2.46365
2.54212
2.62132
2.70121
2.78175
2.8629
2.94465
3.02697
3.10983
3.19322
3.27711
3.3615
3.44635
3.53165
3.61737
3.70348
3.78993
3.8767
3.96371
4.05093
4.13827
4.22565
4.313
4.40021
4.48715
4.57373
4.65979
4.7452
4.8298
4.91342
4.99591
5.07707
5.15674
5.23471
5.31081
5.38485
5.45664
5.52602
5.5928
5.65683
5.71797
5.77606
5.83101
5.88269
5.93102
5.97593
6.01738
6.05534
6.08979
6.12074
6.14821
6.17222
6.19282
6.21007
6.22404
6.23482
6.24248
6.24691
6.24838
6.24694
6.24266
6.23561
6.2259
6.21361
6.19882
6.18161
6.1621
6.14038
6.11654
6.09069
6.06291
6.0333
6.00195
5.96895
5.93437
5.89826
5.86063
5.8215
5.78083
5.73857
5.6946
5.64879
5.60096
5.55092
5.49844
5.4433
5.38524
5.32404
5.25952
5.19156
5.12007
5.04507
4.96665
4.88495
4.80019
4.71266
4.62267
4.53057
4.43674
4.34154
4.24537
4.14858
4.05152
3.9545
3.85783
3.7618
3.66672
3.57282
3.48031
3.38938
3.3002
3.21295
3.12777
3.04478
2.96406
2.88567
2.80962
2.73595
2.66468
2.59579
2.52929
2.46513
2.40329
2.34374
2.28647
2.23144
2.17861
2.12792
2.07932
2.03277
1.98822
1.94568
1.90512
1.86656
1.82994
1.79545
1.76338
1.73027
0.224681
0.323308
0.388095
0.438022
0.480316
0.518101
0.553028
0.586151
0.618229
0.64985
0.681506
0.71361
0.746519
0.780534
0.815906
0.852835
0.891478
0.931945
0.974315
1.01863
1.06491
1.11315
1.16334
1.21544
1.26943
1.32525
1.38287
1.44224
1.50332
1.56605
1.63039
1.6963
1.76371
1.83259
1.90289
1.97455
2.04753
2.12178
2.19724
2.27387
2.35161
2.43042
2.51025
2.59105
2.6728
2.75544
2.83895
2.92329
3.00844
3.09438
3.18107
3.26852
3.35669
3.44557
3.53515
3.62539
3.71627
3.80775
3.89981
3.99239
4.08544
4.17889
4.27269
4.36672
4.46091
4.55515
4.6493
4.74323
4.83679
4.92983
5.02216
5.1136
5.20395
5.29302
5.38058
5.46642
5.55032
5.63207
5.71143
5.7882
5.86218
5.93317
6.00098
6.06544
6.1264
6.18373
6.23731
6.28704
6.33286
6.3747
6.41255
6.4464
6.47624
6.50209
6.524
6.54203
6.55623
6.56669
6.57339
6.57644
6.576
6.57207
6.56477
6.55414
6.54031
6.52334
6.50335
6.4804
6.45463
6.42613
6.39503
6.36144
6.32549
6.2873
6.24702
6.20477
6.16066
6.11481
6.06732
6.01825
5.96766
5.91557
5.86196
5.80676
5.74991
5.69124
5.63061
5.56789
5.50284
5.43525
5.365
5.29196
5.21606
5.13729
5.05572
4.97145
4.88466
4.79558
4.70446
4.61159
4.51728
4.42185
4.32561
4.22887
4.13192
4.03505
3.93852
3.8426
3.74765
3.65387
3.56142
3.4705
3.38125
3.29383
3.20843
3.12517
3.0441
2.96529
2.88876
2.81454
2.74267
2.67315
2.60597
2.5411
2.47852
2.41821
2.36014
2.3043
2.25064
2.19911
2.14968
2.10231
2.05697
2.01366
1.97238
1.93314
1.89585
1.86059
1.82756
1.79392
0.23587
0.336302
0.402957
0.454552
0.498377
0.537598
0.573883
0.608287
0.641561
0.674285
0.706931
0.7399
0.773534
0.808123
0.843911
0.881096
0.919838
0.960256
1.00244
1.04644
1.09229
1.14001
1.1896
1.24106
1.29435
1.34946
1.40637
1.46505
1.52547
1.58761
1.65143
1.71691
1.784
1.85267
1.92289
1.99462
2.06784
2.14249
2.21854
2.29596
2.37468
2.45468
2.53592
2.61835
2.70194
2.78665
2.87246
2.95932
3.04723
3.13614
3.22604
3.31693
3.40879
3.5016
3.59535
3.69
3.78553
3.88191
3.9791
4.07705
4.17571
4.27502
4.37489
4.47524
4.57596
4.67693
4.77802
4.87909
4.97997
5.08047
5.18041
5.27958
5.37775
5.4747
5.57018
5.66395
5.75574
5.8453
5.93239
6.01674
6.09812
6.17629
6.25102
6.32213
6.3894
6.45268
6.51183
6.5667
6.61721
6.66329
6.70488
6.74195
6.7745
6.80253
6.82608
6.84519
6.85993
6.87035
6.87649
6.87848
6.87639
6.87026
6.86018
6.84622
6.82846
6.807
6.78193
6.75335
6.72136
6.68609
6.64766
6.60621
6.5619
6.51488
6.46532
6.41338
6.35924
6.30306
6.24502
6.18526
6.12393
6.06115
5.99697
5.93144
5.86464
5.79644
5.72677
5.65553
5.58233
5.50738
5.43063
5.35199
5.27141
5.18884
5.10431
5.01789
4.92968
4.83983
4.7485
4.65591
4.56226
4.4678
4.37276
4.27738
4.18189
4.08652
3.99148
3.89693
3.80327
3.71072
3.61944
3.52958
3.44127
3.35466
3.26999
3.18735
3.10681
3.0284
2.95216
2.87813
2.80635
2.73684
2.6696
2.6046
2.54183
2.48125
2.42287
2.36665
2.31257
2.26058
2.21067
2.1628
2.11695
2.07312
2.03131
1.99155
1.95375
1.91788
1.88409
1.85007
0.243941
0.345405
0.413326
0.46611
0.511071
0.551395
0.588761
0.624219
0.658509
0.692192
0.725722
0.759477
0.793778
0.828896
0.865058
0.902452
0.941231
0.981514
1.02339
1.06693
1.11218
1.15917
1.20791
1.25841
1.31069
1.36473
1.42053
1.47808
1.53739
1.59844
1.66124
1.72578
1.79199
1.85986
1.92939
2.00058
2.07339
2.14781
2.22381
2.30135
2.3804
2.46094
2.54292
2.62632
2.71111
2.79724
2.88471
2.97346
3.0635
3.15477
3.24724
3.34095
3.4359
3.53206
3.62941
3.72791
3.82754
3.92826
4.03005
4.13285
4.23662
4.34129
4.44677
4.55297
4.65979
4.76709
4.87475
4.98259
5.09044
5.19812
5.3054
5.41206
5.51785
5.62251
5.72578
5.82736
5.92698
6.02434
6.11914
6.21111
6.29995
6.38539
6.46717
6.54506
6.61881
6.68824
6.75315
6.81338
6.86883
6.91937
6.96496
7.00552
7.04104
7.07151
7.09697
7.11744
7.13298
7.14365
7.14952
7.15067
7.14726
7.1392
7.1266
7.10954
7.08808
7.06233
7.03234
6.99825
6.96014
6.91815
6.8724
6.82305
6.77026
6.71423
6.65513
6.59318
6.52859
6.4616
6.39243
6.32133
6.24852
6.17428
6.09869
6.02195
5.94366
5.86435
5.7842
5.70328
5.62211
5.54032
5.45761
5.37392
5.28918
5.20334
5.11637
5.02829
4.93915
4.84902
4.758
4.66622
4.57381
4.48092
4.38773
4.29438
4.20106
4.10794
4.01518
3.92301
3.83194
3.74195
3.65312
3.56558
3.4794
3.39473
3.3118
3.23074
3.15162
3.07447
2.99932
2.92622
2.85526
2.78646
2.7198
2.65527
2.59285
2.53254
2.47433
2.4182
2.36413
2.3121
2.26207
2.21403
2.16798
2.1239
2.08182
2.04173
2.00354
1.96725
1.93292
1.89868
0.248982
0.350818
0.41946
0.472987
0.5187
0.559794
0.597951
0.634212
0.669305
0.70377
0.73804
0.772469
0.807355
0.842941
0.879434
0.917001
0.955784
0.995892
1.03742
1.08043
1.12498
1.17112
1.21887
1.26826
1.31932
1.37206
1.42653
1.48266
1.5405
1.60009
1.66147
1.72469
1.78964
1.85633
1.92478
1.99498
2.06694
2.14064
2.21606
2.2932
2.37203
2.45252
2.53467
2.61843
2.7038
2.79074
2.87924
2.96926
3.0608
3.15382
3.24829
3.34429
3.44177
3.54071
3.64107
3.74284
3.84597
3.95042
4.0562
4.16326
4.27155
4.38098
4.49147
4.60295
4.71528
4.82836
4.94203
5.05612
5.17044
5.2848
5.39897
5.51269
5.6257
5.73772
5.84844
5.95755
6.06473
6.16965
6.27199
6.3714
6.46758
6.56021
6.64898
6.73362
6.81385
6.88945
6.96018
7.02586
7.08632
7.14146
7.19116
7.23535
7.27399
7.30707
7.3346
7.3566
7.37312
7.38423
7.38999
7.39053
7.38603
7.37626
7.36137
7.3414
7.31644
7.28654
7.2518
7.2123
7.16816
7.11949
7.06643
7.00914
6.94779
6.8826
6.81377
6.74155
6.66618
6.58795
6.50721
6.42423
6.33925
6.25219
6.16375
6.07429
5.98477
5.89521
5.80553
5.71582
5.62663
5.53707
5.44756
5.35812
5.26874
5.17936
5.08992
5.00039
4.91074
4.82095
4.73103
4.641
4.55089
4.46075
4.37063
4.28061
4.19078
4.10123
4.01206
3.92326
3.83545
3.74863
3.66288
3.5783
3.49493
3.41285
3.33269
3.25428
3.17761
3.1027
3.02958
2.95826
2.88887
2.82147
2.75606
2.69262
2.63116
2.57165
2.51413
2.45858
2.40498
2.35331
2.30356
2.25572
2.20978
2.16575
2.12364
2.08344
2.04506
2.00855
1.97391
1.93965
0.251191
0.352791
0.421666
0.475531
0.521639
0.563181
0.601838
0.638645
0.674314
0.70936
0.744174
0.779135
0.814508
0.850501
0.887289
0.925017
0.963806
1.00375
1.04494
1.08744
1.13132
1.17663
1.22341
1.27166
1.32143
1.3728
1.42585
1.48052
1.53687
1.59492
1.65469
1.71618
1.77944
1.84452
1.91146
1.98027
2.05096
2.12354
2.19802
2.27438
2.35262
2.43272
2.51468
2.59847
2.68408
2.77148
2.86066
2.95159
3.04426
3.13865
3.23473
3.33247
3.43188
3.53296
3.6357
3.74007
3.84605
3.95358
4.06271
4.17335
4.28544
4.3989
4.51366
4.62966
4.74676
4.86485
4.98377
5.10337
5.22343
5.34376
5.46411
5.58423
5.70381
5.82256
5.94015
6.05624
6.17047
6.28248
6.3919
6.49837
6.60152
6.70101
6.79648
6.88762
6.97412
7.0557
7.1321
7.2031
7.26851
7.32816
7.38193
7.42973
7.47149
7.50717
7.53679
7.56035
7.57789
7.58947
7.59517
7.5952
7.58973
7.57838
7.56131
7.53854
7.51016
7.4762
7.43676
7.39191
7.34175
7.2864
7.226
7.16069
7.09071
7.01623
6.93751
6.85481
6.7684
6.67826
6.58496
6.48902
6.39099
6.29198
6.19191
6.09112
5.99057
5.88957
5.78893
5.68901
5.59015
5.49234
5.39576
5.30048
5.20648
5.11372
5.02211
4.93156
4.84195
4.75319
4.66517
4.57779
4.49096
4.4046
4.31867
4.23312
4.14796
4.06321
3.9789
3.89509
3.81202
3.72978
3.64845
3.56811
3.48881
3.41056
3.33382
3.25859
3.18491
3.11279
3.04226
2.97333
2.90634
2.84115
2.77775
2.71612
2.65627
2.59815
2.54185
2.48738
2.43472
2.38386
2.33478
2.2875
2.24202
2.19835
2.15649
2.1164
2.07809
2.0416
2.00689
1.97283
0.25083
0.351853
0.4205
0.474275
0.520383
0.562003
0.600821
0.63787
0.673852
0.709272
0.744514
0.779947
0.815773
0.852167
0.889275
0.927214
0.966085
1.00597
1.04693
1.08905
1.13237
1.17698
1.22295
1.27024
1.31891
1.36901
1.42057
1.47362
1.52828
1.58462
1.64273
1.70261
1.76431
1.82789
1.89338
1.96082
2.03024
2.10166
2.17509
2.25055
2.32805
2.40758
2.48914
2.57272
2.6583
2.74586
2.83539
2.92687
3.02028
3.1156
3.21281
3.31189
3.41285
3.51566
3.62033
3.72683
3.83511
3.94513
4.05687
4.1703
4.28537
4.40203
4.52023
4.63986
4.76081
4.88298
5.00623
5.13039
5.25527
5.38065
5.50629
5.63191
5.75722
5.88189
6.00557
6.12788
6.24845
6.36688
6.48277
6.59571
6.7053
6.81115
6.91286
7.01009
7.10248
7.18971
7.27147
7.34752
7.41761
7.48156
7.5392
7.5904
7.63509
7.67321
7.70474
7.7297
7.7481
7.76
7.76545
7.76489
7.75836
7.74534
7.72596
7.70026
7.6683
7.63011
7.58577
7.53535
7.47894
7.41665
7.34861
7.27498
7.19584
7.11137
7.02189
6.92775
6.82933
6.72756
6.6225
6.51475
6.40521
6.2934
6.18034
6.06666
5.95306
5.83992
5.72784
5.61735
5.50886
5.40265
5.29894
5.19787
5.09946
5.00365
4.91034
4.81937
4.73055
4.64366
4.55848
4.47479
4.39235
4.31095
4.23042
4.1506
4.07138
3.99269
3.9145
3.83682
3.75974
3.68332
3.60763
3.53273
3.45866
3.38552
3.31349
3.24266
3.17309
3.10481
3.03786
2.9722
2.90814
2.84564
2.78472
2.72538
2.66761
2.61143
2.55695
2.50413
2.45293
2.40337
2.35542
2.30909
2.26441
2.22142
2.18007
2.14041
2.10245
2.06625
2.03171
1.99807
0.24849
0.348336
0.416288
0.46959
0.515389
0.556848
0.595644
0.632808
0.669027
0.704783
0.740424
0.776235
0.812445
0.84922
0.886687
0.924947
0.964079
1.00415
1.0452
1.0873
1.13048
1.17479
1.22027
1.26698
1.31496
1.36431
1.41506
1.46727
1.52102
1.5764
1.63347
1.6923
1.75296
1.81551
1.88001
1.94651
2.01505
2.08564
2.1583
2.23311
2.3101
2.38923
2.47052
2.55395
2.6395
2.72717
2.81693
2.90876
3.00263
3.09853
3.19643
3.29632
3.39818
3.50199
3.60774
3.7154
3.82494
3.93635
4.04958
4.16462
4.28143
4.39996
4.52014
4.6419
4.76516
4.88982
5.01576
5.14283
5.27084
5.39959
5.52884
5.65831
5.78771
5.91669
6.04489
6.17191
6.29735
6.42078
6.54177
6.65987
6.77465
6.88567
6.99252
7.09478
7.19207
7.28403
7.37031
7.45061
7.52465
7.59221
7.65309
7.70714
7.75423
7.79429
7.82729
7.85321
7.87208
7.88391
7.88874
7.88742
7.87962
7.86471
7.84283
7.81403
7.77831
7.73571
7.68626
7.63002
7.56705
7.49748
7.42141
7.33907
7.25076
7.15678
7.05731
6.95282
6.84394
6.73046
6.61317
6.49274
6.36984
6.24496
6.11886
5.99232
5.86616
5.74109
5.61785
5.4971
5.37943
5.26527
5.15495
5.04867
4.94651
4.8484
4.75421
4.66371
4.57662
4.49261
4.41133
4.33242
4.2555
4.18021
4.10624
4.03332
3.96121
3.88976
3.81884
3.74841
3.67845
3.609
3.54006
3.47169
3.40392
3.33682
3.27051
3.20507
3.14057
3.07706
3.01458
2.95319
2.893
2.83407
2.77644
2.72012
2.66513
2.61144