/*--------------------------------*- C++ -*----------------------------------*\
  =========                 |
  \\      /  F ield         | OpenFOAM: The Open Source CFD Toolbox
   \\    /   O peration     | Website:  https://openfoam.org
    \\  /    A nd           | Version:  7
     \\/     M anipulation  |
\*---------------------------------------------------------------------------*/
FoamFile
{
    version     2.0;
    format      ascii;
    class       volScalarField;
    location    "100";
    object      nut;
}
// * * * * * * * * * * * * * * * * * * * * * * * * * * * * * * * * * * * * * //

dimensions      [0 2 -1 0 0 0 0];

internalField   nonuniform List<scalar> 
12225
(
4.14924e-05
3.93417e-05
3.74815e-05
3.54351e-05
3.37808e-05
3.24256e-05
3.15037e-05
3.09147e-05
3.09195e-05
3.11017e-05
3.15729e-05
3.21229e-05
3.31628e-05
3.38431e-05
3.5136e-05
3.57164e-05
3.77785e-05
3.55369e-05
0.000332259
0.000215134
0.000179291
0.000157641
0.000146234
0.000138164
0.000132678
0.000131734
0.000129404
0.000130172
0.000128932
0.000129564
0.000128541
0.000128707
0.000127938
0.000127619
0.000127657
0.000126328
0.000668776
0.000450541
0.000355823
0.000309746
0.000275337
0.000251005
0.000231732
0.000217177
0.000202608
0.000192048
0.000182524
0.000175034
0.000169286
0.000163356
0.000160193
0.000155024
0.000153599
0.000149052
0.000801645
0.00069157
0.000572672
0.000499944
0.000449457
0.000411863
0.000380814
0.000355865
0.000333991
0.000314581
0.000298243
0.000281411
0.000270145
0.000255582
0.000247825
0.000235479
0.000229477
0.000219191
0.000839616
0.000810134
0.000740802
0.000676304
0.000624005
0.000581265
0.000545908
0.000514405
0.000489507
0.00046421
0.000445765
0.00042374
0.000409681
0.000390316
0.000379295
0.00036234
0.000353316
0.000337925
0.000850345
0.000843264
0.000819563
0.000786476
0.000750836
0.000715795
0.000685785
0.000656006
0.000632525
0.000607332
0.000588883
0.000566962
0.000552001
0.000532643
0.000520205
0.000502943
0.000492218
0.000476021
0.000851581
0.000851014
0.000843301
0.000833456
0.000817146
0.000796902
0.000777883
0.000756654
0.000738871
0.000719017
0.000703426
0.000685405
0.000671879
0.000655549
0.000643833
0.000628868
0.000618643
0.000603993
0.000851584
0.000851811
0.000850043
0.000847451
0.000841408
0.000833746
0.000824806
0.000813396
0.000802789
0.000790396
0.000779636
0.000767398
0.00075725
0.000745519
0.000736203
0.000725054
0.000716549
0.000705232
0.000851675
0.000851527
0.000851019
0.000850338
0.000848877
0.000846165
0.000843025
0.000838285
0.000833387
0.000827323
0.000821163
0.000814695
0.000808299
0.00080137
0.00079503
0.00078813
0.000781795
0.000774733
0.000851756
0.000851384
0.000851045
0.000850631
0.000850248
0.000849364
0.000848404
0.000846773
0.000844946
0.000842512
0.000839897
0.000836758
0.000833736
0.00083007
0.000826856
0.000822778
0.000819691
0.000815022
0.000851785
0.000851357
0.000851013
0.000850613
0.00085033
0.000849903
0.000849525
0.000848925
0.000848298
0.000847384
0.000846453
0.000845156
0.000843962
0.000842311
0.000840943
0.00083896
0.000837551
0.000835242
0.000851789
0.000851359
0.000850996
0.000850605
0.000850292
0.000849938
0.000849645
0.000849278
0.000848952
0.000848499
0.000848091
0.000847497
0.000846983
0.000846224
0.000845617
0.000844687
0.000844019
0.000842926
0.000851786
0.000851363
0.000850986
0.000850604
0.000850269
0.000849926
0.000849629
0.000849312
0.000849041
0.000848725
0.000848458
0.00084812
0.000847836
0.000847456
0.000847145
0.000846712
0.000846372
0.000845884
0.000851783
0.000851364
0.000850978
0.000850602
0.000850256
0.000849917
0.000849607
0.000849299
0.000849022
0.000848739
0.000848486
0.000848221
0.000847985
0.000847731
0.000847504
0.000847254
0.00084703
0.000846781
0.000851781
0.000851364
0.000850973
0.000850598
0.000850247
0.000849909
0.000849592
0.000849287
0.000849
0.000848723
0.000848463
0.000848211
0.000847975
0.000847745
0.000847529
0.000847317
0.000847118
0.000846924
0.00085178
0.000851363
0.000850969
0.000850594
0.000850239
0.000849901
0.000849581
0.000849275
0.000848985
0.000848708
0.000848445
0.000848193
0.000847953
0.000847724
0.000847506
0.000847298
0.000847099
0.000846909
0.000851779
0.000851363
0.000850967
0.000850591
0.000850234
0.000849895
0.000849573
0.000849266
0.000848974
0.000848696
0.000848431
0.000848178
0.000847936
0.000847706
0.000847486
0.000847276
0.000847075
0.000846884
0.000851779
0.000851362
0.000850965
0.000850589
0.000850231
0.000849891
0.000849568
0.00084926
0.000848967
0.000848687
0.000848421
0.000848167
0.000847924
0.000847692
0.000847471
0.000847259
0.000847057
0.000846864
0.000851779
0.000851362
0.000850965
0.000850588
0.00085023
0.00084989
0.000849566
0.000849257
0.000848963
0.000848683
0.000848416
0.000848161
0.000847918
0.000847685
0.000847463
0.00084725
0.000847047
0.000846853
0.000851779
0.000851362
0.000850966
0.000850589
0.000850232
0.000849892
0.000849568
0.00084926
0.000848967
0.000848687
0.00084842
0.000848165
0.000847921
0.000847688
0.000847465
0.000847253
0.000847048
0.000846853
0.000851779
0.000851363
0.000850967
0.000850592
0.000850235
0.000849897
0.000849574
0.000849268
0.000848974
0.000848695
0.000848426
0.000848172
0.000847923
0.000847688
0.000847456
0.000847238
0.00084702
0.000846815
0.000851778
0.000851366
0.000850968
0.000850599
0.00085024
0.000849908
0.000849581
0.000849275
0.000848966
0.000848673
0.000848367
0.000848075
0.00084776
0.000847461
0.000847129
0.000846819
0.000846466
0.000846147
0.000851773
0.000851376
0.000850971
0.000850615
0.000850241
0.00084989
0.000849479
0.000849055
0.000848531
0.000847981
0.000847305
0.000846609
0.000845773
0.000844947
0.000843965
0.000843042
0.000841934
0.000840959
0.000851768
0.000851415
0.000850964
0.000850548
0.000849861
0.000848967
0.000847612
0.000845978
0.000843909
0.000841642
0.000838963
0.000836225
0.000833131
0.000830132
0.000826787
0.00082371
0.000820221
0.000817223
0.000851859
0.00085138
0.000850196
0.000848243
0.000844471
0.000839356
0.000832769
0.000825665
0.000817972
0.000810024
0.000801637
0.000793652
0.000785364
0.000777746
0.000769793
0.00076276
0.000755196
0.000748882
0.000852108
0.000847667
0.000839902
0.000827146
0.000808712
0.000789649
0.000769986
0.000751424
0.000733325
0.000716919
0.000700968
0.00068682
0.000672883
0.000660733
0.000648457
0.000638033
0.000627065
0.000618149
0.000843241
0.000822507
0.000775188
0.000726458
0.000684904
0.000649857
0.000618477
0.000592035
0.000568409
0.00054834
0.000529732
0.000514038
0.000498817
0.000486089
0.000473295
0.000462812
0.000451752
0.000442949
0.000795687
0.000668243
0.000570629
0.000509908
0.000465613
0.000431192
0.000404161
0.000382497
0.000364225
0.000349096
0.000335979
0.000325103
0.000314566
0.000306294
0.000298036
0.000291451
0.000284386
0.000279045
0.000501313
0.000348359
0.000292674
0.000259183
0.000236327
0.000221181
0.000211628
0.000203864
0.000198572
0.000195086
0.000192231
0.000190381
0.000188595
0.000187455
0.000186183
0.000185491
0.000184576
0.000184167
7.27386e-05
7.02254e-05
6.79544e-05
6.56136e-05
6.3383e-05
6.12761e-05
5.94945e-05
5.7955e-05
5.67107e-05
5.57026e-05
5.49767e-05
5.44165e-05
5.41073e-05
5.38779e-05
5.3891e-05
5.39271e-05
5.40844e-05
5.43134e-05
3.72127e-06
4.94414e-05
7.40419e-05
9.59113e-05
0.000115906
0.000134465
0.000151788
0.000167351
0.000180463
0.000190354
0.000196366
0.000199402
0.00019964
0.000179532
0.000143909
1.83663e-05
1.75322e-05
1.94385e-05
2.3074e-05
2.72136e-05
3.70798e-05
4.62657e-05
5.15034e-05
5.34869e-05
5.56782e-05
5.78187e-05
5.99739e-05
6.21181e-05
6.42542e-05
6.63597e-05
6.84381e-05
7.04705e-05
7.24634e-05
7.44018e-05
7.62941e-05
7.81283e-05
7.99152e-05
8.16439e-05
8.33264e-05
8.49532e-05
8.65366e-05
8.80678e-05
8.95592e-05
9.10027e-05
9.24111e-05
9.37759e-05
9.51091e-05
9.64024e-05
9.76673e-05
9.88955e-05
0.000100098
0.000101266
0.000102411
0.000103524
0.000104614
0.000105673
0.000106711
0.000107718
0.000108704
0.000109661
0.000110595
0.000111501
0.000112384
0.000113238
0.000114069
0.000114872
0.00011565
0.000116402
0.000117129
0.000117829
0.000118503
0.000119148
0.000119766
0.000120357
0.000120921
0.000121459
0.00012197
0.000122457
0.00012292
0.000123362
0.000123781
0.000124184
0.000124567
0.000124938
0.000125292
0.000125639
0.000125972
0.000126303
0.000126625
0.000126948
0.000127267
0.000127573
0.000127852
0.000128069
0.000128152
0.000127937
0.000126704
0.000128568
0.000131331
0.000128148
0.000131862
0.000129161
0.000131583
0.000129056
0.000132934
0.0001328
0.000133458
0.000132548
0.000130147
0.000131084
0.000132526
0.000131641
0.000132244
0.000133045
0.000135166
0.000134282
0.000134157
0.000132542
0.000133191
0.000132623
0.000133946
0.00013344
0.000133443
0.000133093
0.000132778
0.000132377
0.000131922
0.000131412
0.000130844
0.000130199
0.000129482
0.000128693
0.000127824
0.000126881
0.000125902
0.000124816
0.000123656
0.000122418
0.000121104
0.000119724
0.000118302
0.000116777
0.000115141
0.000113706
0.00011174
0.000109056
0.000107624
0.000106468
0.000105327
0.000104163
0.000102985
0.000101789
0.000100585
9.94177e-05
9.8223e-05
9.69465e-05
9.5723e-05
9.45607e-05
9.33729e-05
9.21725e-05
9.09721e-05
8.97889e-05
8.86363e-05
8.75053e-05
8.63943e-05
8.53091e-05
8.42515e-05
8.32199e-05
8.22164e-05
8.12404e-05
8.02922e-05
7.93693e-05
7.84727e-05
7.75894e-05
7.67408e-05
7.58569e-05
7.50388e-05
7.41519e-05
7.26938e-05
7.11324e-05
8.48152e-06
7.44281e-05
0.000150423
0.000209971
0.000254522
0.00028765
0.000311611
0.000328287
0.000338657
0.000343204
0.000341229
0.00033198
0.000316239
0.000295761
0.000266496
0.000227123
0.00022403
0.000231789
0.000244989
0.00026218
0.000283544
0.000305251
0.00032025
0.000332222
0.000344574
0.000357692
0.000371599
0.000386327
0.000401835
0.000418015
0.000434753
0.000451938
0.000469448
0.000487171
0.000504992
0.000522822
0.000540572
0.000558171
0.000575553
0.00059267
0.000609477
0.000625944
0.000642037
0.000657735
0.000673084
0.000688083
0.000702735
0.000717048
0.000731029
0.000744688
0.000758034
0.000771077
0.000783825
0.000796285
0.000808464
0.000820363
0.000831987
0.000843333
0.000854404
0.000865193
0.0008757
0.000885915
0.000895836
0.000905449
0.000914755
0.000923736
0.000932395
0.000940718
0.000948712
0.000956372
0.00096369
0.000970605
0.000977122
0.000983221
0.000988914
0.000994183
0.000999042
0.00100348
0.00100752
0.00101116
0.00101444
0.00101736
0.00101996
0.00102226
0.00102431
0.00102613
0.00102777
0.00102927
0.0010307
0.00103215
0.00103372
0.00103548
0.00103754
0.00103998
0.00104297
0.00104669
0.00105142
0.00105779
0.00106043
0.0010603
0.00106704
0.00106814
0.00107535
0.00107966
0.00108925
0.00109518
0.00109874
0.00110044
0.00110402
0.00111251
0.00112332
0.00111966
0.00112886
0.0011393
0.00114483
0.0011433
0.00114679
0.00115696
0.00116242
0.00115977
0.00116695
0.00117183
0.001179
0.00118316
0.00118693
0.00119003
0.00119245
0.00119416
0.00119526
0.0011953
0.00119437
0.00119243
0.00118947
0.00118547
0.00118054
0.00117461
0.00116773
0.00115994
0.00115128
0.00114178
0.0011316
0.00112072
0.00110883
0.00109699
0.00108447
0.00106693
0.00104759
0.00102745
0.00100695
0.000986295
0.000965648
0.000945127
0.00092474
0.000904585
0.000884763
0.000865206
0.000846095
0.000827787
0.000809955
0.000792384
0.000775243
0.000758615
0.000742493
0.000726749
0.000711421
0.000696562
0.000682142
0.00066815
0.000654591
0.000641453
0.000628697
0.000616343
0.000604242
0.000592602
0.000580836
0.000569845
0.000557711
0.000546679
0.000525914
0.000474548
1.52248e-05
0.000107099
0.000209965
0.000294087
0.000359696
0.000409654
0.000446521
0.000472283
0.000488539
0.000496536
0.000498317
0.000496301
0.000492234
0.000488317
0.00048484
0.000483708
0.000493289
0.00051008
0.000531793
0.000557172
0.000585542
0.000612161
0.000637521
0.000663077
0.000689745
0.000717766
0.000747763
0.000779664
0.000812731
0.000846661
0.000881246
0.000916318
0.000951692
0.000987171
0.00102256
0.00105774
0.00109262
0.0011271
0.00116109
0.00119453
0.00122737
0.00125959
0.00129116
0.00132208
0.00135236
0.001382
0.00141102
0.00143942
0.00146722
0.00149444
0.0015211
0.00154719
0.00157275
0.00159778
0.00162229
0.0016463
0.00166979
0.00169278
0.00171527
0.00173724
0.00175871
0.00177965
0.00180006
0.00181992
0.00183922
0.00185796
0.0018761
0.00189364
0.00191056
0.00192685
0.00194248
0.00195743
0.00197169
0.00198523
0.00199806
0.00201017
0.00202155
0.00203221
0.00204216
0.0020514
0.00205997
0.00206789
0.0020752
0.00208193
0.00208814
0.00209388
0.00209922
0.00210423
0.002109
0.00211365
0.00211832
0.00212311
0.00212813
0.00213348
0.00213921
0.00214533
0.00215161
0.00215751
0.00216153
0.00216576
0.00217261
0.00217797
0.00218618
0.00219368
0.0022028
0.00220981
0.00221561
0.00222165
0.00222938
0.00223936
0.0022486
0.00225269
0.00226351
0.00227497
0.00228242
0.00228765
0.00229617
0.00230696
0.00231564
0.00231835
0.00232571
0.00233241
0.00233918
0.00234422
0.00234806
0.00235055
0.00235162
0.00235112
0.002349
0.00234504
0.00233919
0.00233141
0.00232168
0.00230999
0.00229642
0.00228098
0.00226373
0.00224474
0.00222412
0.00220197
0.00217845
0.00215365
0.00212747
0.0021005
0.00207255
0.00204097
0.002007
0.00197171
0.00193572
0.00189941
0.00186304
0.00182681
0.00179081
0.00175525
0.00172047
0.00168638
0.00165332
0.00162195
0.00159136
0.00156089
0.00153129
0.0015027
0.00147508
0.00144793
0.00142147
0.00139586
0.00137097
0.00134677
0.00132328
0.00130048
0.00127827
0.00125666
0.00123544
0.00121479
0.00119404
0.0011741
0.00115262
0.00113236
0.00110555
0.00103927
2.28356e-05
0.000138205
0.000263505
0.000367384
0.000449812
0.000513491
0.00056162
0.000597049
0.000622348
0.000639972
0.000652502
0.000662649
0.000673087
0.00068288
0.000694277
0.000708945
0.000728595
0.000752859
0.000780833
0.000811476
0.000843575
0.000878112
0.000914634
0.000953093
0.00099361
0.00103625
0.00108042
0.00112566
0.00117198
0.00121917
0.00126698
0.00131534
0.00136414
0.00141327
0.00146229
0.001511
0.00155925
0.00160693
0.00165396
0.00170026
0.0017458
0.00179054
0.00183446
0.00187755
0.00191981
0.00196125
0.00200187
0.0020417
0.00208074
0.00211901
0.00215653
0.00219332
0.00222939
0.00226476
0.00229943
0.00233342
0.00236673
0.00239937
0.00243133
0.00246262
0.00249322
0.00252314
0.00255235
0.00258084
0.00260859
0.0026356
0.00266183
0.00268726
0.00271188
0.00273566
0.00275858
0.00278062
0.00280176
0.00282198
0.00284127
0.00285962
0.00287702
0.00289349
0.00290901
0.00292362
0.00293733
0.00295016
0.00296216
0.00297337
0.00298384
0.00299363
0.00300281
0.00301147
0.00301969
0.0030276
0.00303529
0.00304289
0.00305045
0.00305803
0.00306563
0.00307316
0.00308042
0.00308713
0.00309317
0.00309948
0.00310659
0.00311363
0.0031216
0.0031295
0.00313763
0.00314488
0.00315169
0.00315888
0.00316693
0.00317572
0.00318394
0.00319093
0.00320013
0.00320947
0.00321735
0.00322575
0.00323562
0.00324471
0.00325096
0.00325502
0.00326116
0.00326657
0.0032712
0.00327437
0.00327599
0.00327591
0.00327416
0.00327043
0.00326457
0.00325642
0.00324587
0.00323286
0.00321736
0.00319936
0.00317891
0.00315606
0.00313087
0.00310345
0.00307392
0.0030424
0.00300908
0.0029741
0.00293755
0.00289972
0.00286052
0.00281884
0.00277508
0.00272995
0.00268401
0.00263764
0.00259116
0.00254479
0.0024987
0.00245311
0.0024083
0.00236434
0.00232138
0.00227984
0.00223948
0.00220057
0.00216332
0.00212757
0.00209329
0.00205917
0.00202604
0.00199411
0.00196307
0.00193286
0.00190357
0.00187513
0.0018474
0.00182033
0.00179374
0.00176772
0.00174174
0.00171634
0.0016899
0.00166332
0.00163783
0.00156984
3.07827e-05
0.000165785
0.000312006
0.000434023
0.00053212
0.00060899
0.000668494
0.000714132
0.000749043
0.000776099
0.000797978
0.000817125
0.000835593
0.000854747
0.000875873
0.000899953
0.000927619
0.00095896
0.000993735
0.00103159
0.00107221
0.00111558
0.00116155
0.00120998
0.0012607
0.00131347
0.00136796
0.00142385
0.00148092
0.00153898
0.00159781
0.00165706
0.00171647
0.00177578
0.00183479
0.00189341
0.0019515
0.00200897
0.00206572
0.00212169
0.00217681
0.00223105
0.00228439
0.0023368
0.00238829
0.00243885
0.00248848
0.00253721
0.00258505
0.002632
0.00267809
0.00272333
0.00276774
0.00281133
0.00285413
0.00289613
0.00293734
0.00297777
0.00301742
0.00305629
0.00309437
0.00313165
0.00316812
0.00320376
0.00323856
0.0032725
0.00330554
0.00333767
0.00336885
0.00339907
0.0034283
0.00345651
0.00348367
0.00350977
0.00353478
0.00355869
0.00358149
0.00360317
0.00362374
0.00364319
0.00366154
0.00367882
0.00369505
0.00371027
0.00372452
0.00373785
0.00375033
0.00376204
0.00377304
0.00378343
0.00379331
0.00380275
0.00381182
0.00382055
0.00382894
0.00383693
0.00384441
0.00385129
0.0038577
0.00386399
0.00387036
0.00387669
0.0038832
0.00388965
0.00389601
0.00390204
0.00390791
0.00391392
0.00392019
0.00392671
0.00393325
0.00393952
0.00394591
0.00395305
0.00396101
0.00396831
0.00397444
0.00397955
0.00398388
0.00398748
0.00399115
0.00399408
0.00399598
0.00399647
0.00399535
0.00399238
0.00398755
0.00398058
0.00397128
0.00395948
0.00394507
0.00392795
0.00390808
0.00388543
0.00386003
0.00383193
0.00380121
0.00376797
0.00373235
0.0036945
0.00365461
0.00361286
0.00356939
0.00352438
0.00347782
0.00342934
0.00337914
0.00332767
0.00327538
0.00322264
0.00316974
0.00311694
0.00306444
0.00301245
0.00296122
0.00291088
0.00286156
0.00281351
0.00276672
0.00272133
0.00267752
0.0026356
0.00259596
0.00255775
0.00252109
0.00248603
0.00245187
0.00241854
0.00238634
0.00235512
0.00232462
0.00229477
0.00226543
0.0022366
0.00220798
0.00217976
0.00215104
0.00212163
0.00209544
0.00202936
3.86157e-05
0.000190873
0.000355797
0.000494659
0.000607254
0.000696945
0.000767668
0.000823421
0.00086771
0.000903645
0.000933999
0.000961205
0.000987307
0.00101392
0.0010423
0.00107331
0.00110751
0.00114514
0.00118619
0.00123056
0.00127809
0.00132863
0.00138199
0.00143796
0.00149629
0.00155667
0.00161882
0.00168241
0.00174717
0.00181284
0.00187916
0.00194584
0.00201264
0.00207934
0.00214577
0.00221176
0.00227721
0.00234201
0.00240606
0.00246929
0.00253166
0.0025931
0.00265361
0.00271315
0.00277172
0.00282931
0.00288593
0.00294159
0.0029963
0.00305007
0.00310292
0.00315487
0.00320593
0.00325612
0.00330545
0.00335393
0.00340157
0.00344838
0.00349435
0.00353949
0.00358378
0.00362723
0.00366981
0.00371151
0.0037523
0.00379217
0.00383108
0.00386901
0.00390593
0.0039418
0.00397658
0.00401026
0.00404279
0.00407414
0.00410429
0.00413321
0.00416087
0.00418727
0.00421239
0.00423622
0.00425876
0.00428003
0.00430003
0.00431879
0.00433635
0.00435273
0.004368
0.00438219
0.00439539
0.00440765
0.00441906
0.00442967
0.00443954
0.00444871
0.00445718
0.00446494
0.00447196
0.00447823
0.00448385
0.00448898
0.00449376
0.00449821
0.0045024
0.00450631
0.00450997
0.00451335
0.00451654
0.00451963
0.00452233
0.00452504
0.00452858
0.00453304
0.00453621
0.00453905
0.0045421
0.00454492
0.00454703
0.00454867
0.00454971
0.00455024
0.00455038
0.0045498
0.00454822
0.00454539
0.00454108
0.00453509
0.00452723
0.00451728
0.00450505
0.00449034
0.00447303
0.004453
0.00443016
0.00440449
0.00437599
0.0043447
0.00431068
0.00427403
0.0042349
0.00419343
0.0041498
0.0041042
0.00405679
0.00400772
0.00395707
0.00390479
0.00385106
0.00379618
0.0037405
0.00368433
0.00362797
0.00357166
0.00351561
0.00346003
0.00340515
0.00335112
0.00329809
0.00324621
0.00319555
0.00314624
0.00309841
0.00305226
0.003008
0.00296593
0.00292613
0.00288852
0.00285271
0.00281841
0.00278552
0.00275344
0.00272194
0.00269108
0.00266067
0.00263073
0.00260105
0.0025717
0.0025422
0.00251208
0.00248485
0.00242608
4.60805e-05
0.000213122
0.000394497
0.000548763
0.000674842
0.000776741
0.000858356
0.000923986
0.000977369
0.00102177
0.00106004
0.00109464
0.00112766
0.00116075
0.00119523
0.001232
0.00127169
0.00131463
0.00136093
0.00141059
0.00146348
0.00151944
0.00157826
0.00163969
0.00170345
0.00176924
0.00183676
0.0019057
0.00197578
0.00204671
0.00211824
0.00219011
0.0022621
0.002334
0.00240564
0.00247688
0.00254759
0.00261766
0.00268701
0.00275555
0.00282324
0.00289003
0.00295588
0.00302079
0.00308472
0.00314768
0.00320967
0.00327069
0.00333076
0.00338988
0.00344808
0.00350537
0.00356176
0.00361727
0.00367192
0.00372572
0.00377867
0.00383078
0.00388206
0.00393249
0.00398208
0.00403082
0.00407868
0.00412565
0.0041717
0.00421681
0.00426094
0.00430407
0.00434615
0.00438714
0.004427
0.00446568
0.00450315
0.00453937
0.00457428
0.00460785
0.00464005
0.00467084
0.0047002
0.00472809
0.00475451
0.00477945
0.0048029
0.00482487
0.00484537
0.00486442
0.00488206
0.00489831
0.00491324
0.00492688
0.00493929
0.00495053
0.00496064
0.00496966
0.00497762
0.00498453
0.0049904
0.00499525
0.00499917
0.00500224
0.00500456
0.00500623
0.00500721
0.00500765
0.00500769
0.00500728
0.00500657
0.00500579
0.00500439
0.00500292
0.0050017
0.00500034
0.00499842
0.00499632
0.00499408
0.00499161
0.00498877
0.00498562
0.00498213
0.00497828
0.00497405
0.00496925
0.00496367
0.00495709
0.00494931
0.00494011
0.00492929
0.00491661
0.00490188
0.00488489
0.00486546
0.00484347
0.00481881
0.00479142
0.00476127
0.00472837
0.00469279
0.00465461
0.00461394
0.00457092
0.00452572
0.0044785
0.00442942
0.00437866
0.00432631
0.00427248
0.00421734
0.00416113
0.00410413
0.00404661
0.00398884
0.00393106
0.00387347
0.00381631
0.00375976
0.003704
0.00364917
0.00359541
0.00354279
0.00349144
0.00344147
0.00339304
0.0033463
0.00330143
0.00325883
0.00321912
0.00318197
0.00314694
0.0031137
0.00308175
0.00305081
0.00302045
0.00299034
0.00296061
0.00293112
0.00290189
0.00287267
0.00284308
0.00281541
0.00276435
5.29664e-05
0.000232303
0.000427787
0.000595817
0.000734273
0.000847651
0.000939694
0.00101488
0.00107707
0.00112963
0.00117546
0.00121703
0.00125645
0.00129542
0.00133528
0.00137702
0.00142131
0.00146858
0.00151902
0.00157268
0.00162948
0.00168928
0.00175185
0.00181695
0.00188431
0.00195363
0.00202461
0.00209697
0.00217042
0.00224469
0.00231954
0.00239474
0.00247007
0.00254535
0.00262041
0.00269511
0.00276932
0.00284295
0.00291591
0.00298812
0.00305953
0.00313008
0.00319976
0.00326852
0.00333637
0.00340329
0.00346927
0.00353433
0.00359848
0.00366172
0.00372407
0.00378555
0.00384617
0.00390595
0.00396491
0.00402306
0.0040804
0.00413695
0.0041927
0.00424765
0.0043018
0.00435513
0.00440762
0.00445926
0.00451002
0.00455986
0.00460875
0.00465664
0.00470348
0.00474924
0.00479384
0.00483725
0.0048794
0.00492024
0.00495971
0.00499775
0.0050343
0.00506932
0.00510276
0.00513458
0.00516473
0.00519319
0.00521993
0.00524495
0.00526822
0.00528975
0.00530956
0.00532766
0.00534407
0.00535883
0.00537198
0.00538356
0.00539361
0.00540218
0.00540929
0.00541498
0.00541928
0.00542223
0.0054239
0.00542434
0.00542362
0.00542199
0.00541909
0.00541533
0.00541114
0.00540668
0.00540131
0.00539527
0.00538867
0.00538173
0.00537456
0.00536708
0.0053592
0.00535107
0.00534274
0.00533424
0.00532556
0.00531676
0.00530782
0.00529875
0.00528949
0.00527993
0.00526991
0.00525926
0.0052478
0.00523531
0.00522159
0.0052064
0.00518952
0.00517073
0.00514982
0.00512664
0.00510105
0.00507294
0.00504228
0.00500904
0.00497327
0.00493502
0.00489437
0.00485142
0.00480633
0.00475922
0.00471025
0.00465959
0.00460736
0.0045537
0.00449879
0.00444285
0.00438611
0.00432881
0.00427118
0.00421346
0.00415585
0.00409857
0.00404184
0.00398581
0.00393064
0.00387641
0.00382325
0.00377126
0.00372056
0.00367128
0.00362355
0.00357749
0.00353338
0.00349198
0.00345391
0.0034185
0.00338521
0.00335355
0.00332317
0.0032937
0.00326487
0.00323631
0.00320788
0.0031796
0.00315136
0.00312295
0.00309559
0.00305127
5.91114e-05
0.000248328
0.000455567
0.000635595
0.0007852
0.000909158
0.001011
0.00109528
0.00116591
0.0012263
0.00127936
0.00132755
0.00137298
0.00141737
0.00146207
0.00150813
0.00155628
0.00160701
0.00166058
0.0017171
0.00177654
0.00183878
0.00190364
0.00197088
0.00204025
0.00211148
0.0021843
0.00225842
0.00233359
0.00240957
0.00248611
0.00256302
0.00264008
0.00271714
0.00279403
0.00287063
0.00294681
0.00302248
0.00309756
0.00317197
0.00324566
0.00331858
0.00339069
0.00346198
0.00353243
0.00360203
0.00367077
0.00373867
0.00380573
0.00387196
0.00393738
0.00400201
0.00406586
0.00412896
0.00419132
0.00425295
0.00431387
0.00437407
0.00443357
0.00449236
0.00455044
0.00460778
0.00466438
0.0047202
0.00477521
0.00482938
0.00488266
0.004935
0.00498635
0.00503664
0.0050858
0.00513378
0.00518049
0.00522586
0.00526982
0.00531228
0.00535318
0.00539244
0.00542998
0.00546575
0.00549967
0.0055317
0.00556179
0.00558989
0.00561598
0.00564004
0.00566205
0.005682
0.00569991
0.00571579
0.00572967
0.00574157
0.00575153
0.00575959
0.00576579
0.00577016
0.00577276
0.00577363
0.00577284
0.00577045
0.00576626
0.00576055
0.0057538
0.00574617
0.00573772
0.00572796
0.00571717
0.00570548
0.00569301
0.00567992
0.0056663
0.00565221
0.0056377
0.00562288
0.00560785
0.00559271
0.00557754
0.0055624
0.00554735
0.00553241
0.00551758
0.0055028
0.00548797
0.00547296
0.0054576
0.00544172
0.00542511
0.00540754
0.00538876
0.00536853
0.00534662
0.00532283
0.00529701
0.005269
0.00523873
0.00520617
0.0051713
0.00513416
0.00509477
0.0050532
0.00500956
0.00496394
0.0049165
0.00486735
0.00481664
0.00476452
0.00471116
0.00465676
0.00460153
0.00454567
0.0044894
0.00443292
0.00437645
0.00432021
0.00426443
0.00420926
0.00415485
0.00410127
0.00404864
0.00399708
0.00394671
0.00389766
0.00385003
0.00380394
0.00375961
0.00371756
0.00367914
0.00364375
0.00361071
0.00357951
0.00354977
0.00352117
0.00349343
0.0034663
0.00343957
0.00341279
0.00338596
0.00335906
0.0033326
0.00329386
6.44066e-05
0.000261227
0.000477906
0.000668084
0.000827482
0.000960949
0.0010718
0.00116454
0.00124311
0.00131088
0.00137075
0.00142516
0.0014762
0.00152557
0.00157463
0.00162445
0.00167581
0.00172924
0.00178508
0.00184348
0.00190446
0.00196796
0.00203384
0.0021019
0.00217191
0.00224364
0.00231684
0.00239127
0.0024667
0.0025429
0.00261966
0.00269679
0.00277412
0.00285149
0.00292877
0.00300582
0.00308254
0.00315883
0.00323463
0.00330986
0.00338447
0.00345841
0.00353166
0.00360418
0.00367597
0.00374702
0.00381733
0.0038869
0.00395574
0.00402387
0.00409131
0.00415808
0.0042242
0.00428969
0.00435457
0.00441886
0.00448256
0.0045457
0.00460826
0.00467026
0.00473168
0.00479251
0.00485272
0.00491229
0.00497119
0.00502937
0.00508677
0.00514334
0.00519902
0.00525371
0.00530736
0.00535987
0.00541115
0.0054611
0.00550964
0.00555665
0.00560203
0.0056457
0.00568755
0.00572748
0.00576542
0.00580126
0.00583495
0.00586641
0.00589559
0.00592243
0.00594691
0.00596899
0.00598865
0.00600591
0.00602075
0.00603321
0.00604331
0.00605107
0.00605653
0.00605975
0.00606078
0.00605969
0.00605654
0.00605104
0.00604354
0.00603447
0.00602403
0.00601213
0.00599859
0.00598358
0.00596721
0.00594964
0.005931
0.00591144
0.0058911
0.00587011
0.00584858
0.00582667
0.00580453
0.00578231
0.00576014
0.00573816
0.00571648
0.00569519
0.00567433
0.00565391
0.0056339
0.00561421
0.00559473
0.0055753
0.00555573
0.00553582
0.00551527
0.00549383
0.00547124
0.00544729
0.00542177
0.0053945
0.00536534
0.00533424
0.00530117
0.00526609
0.00522897
0.00518984
0.00514874
0.00510575
0.00506096
0.00501447
0.00496642
0.00491695
0.00486622
0.0048144
0.00476171
0.0047083
0.00465436
0.0046001
0.00454571
0.00449142
0.00443749
0.0043841
0.00433133
0.00427928
0.00422803
0.00417774
0.00412853
0.00408055
0.00403389
0.00398867
0.00394506
0.00390353
0.0038655
0.00383061
0.00379814
0.00376758
0.00373858
0.00371084
0.00368413
0.00365822
0.00363296
0.00360803
0.00358286
0.00355759
0.00353236
0.00349827
6.8784e-05
0.000271099
0.000494971
0.000693371
0.00086109
0.00100274
0.00112176
0.00122219
0.001308
0.00138253
0.00144864
0.00150875
0.00156489
0.00161873
0.00167163
0.00172465
0.0017786
0.00183404
0.00189136
0.00195077
0.00201235
0.00207607
0.00214185
0.00220954
0.00227895
0.0023499
0.00242217
0.00249555
0.00256986
0.00264489
0.00272047
0.00279644
0.00287263
0.0029489
0.00302515
0.00310125
0.00317711
0.00325265
0.00332779
0.00340248
0.00347666
0.00355029
0.00362335
0.00369582
0.00376769
0.00383895
0.00390961
0.00397968
0.00404916
0.00411808
0.00418647
0.00425434
0.00432174
0.00438869
0.00445521
0.00452132
0.00458704
0.00465238
0.00471734
0.00478192
0.00484613
0.00490994
0.00497334
0.00503628
0.00509875
0.00516067
0.005222
0.00528266
0.00534258
0.00540166
0.00545982
0.00551695
0.00557293
0.00562766
0.005681
0.00573283
0.00578303
0.00583146
0.00587799
0.00592251
0.00596489
0.00600501
0.00604278
0.00607808
0.00611084
0.00614097
0.00616842
0.00619312
0.00621505
0.00623417
0.00625048
0.00626397
0.00627466
0.00628257
0.00628774
0.00629021
0.00629005
0.00628733
0.00628195
0.00627399
0.00626377
0.00625157
0.00623735
0.00622106
0.0062028
0.00618269
0.00616086
0.00613746
0.00611266
0.00608662
0.00605954
0.00603157
0.00600289
0.00597372
0.00594423
0.00591466
0.00588519
0.00585602
0.00582733
0.00579929
0.00577201
0.00574558
0.00572002
0.00569534
0.00567147
0.00564827
0.00562558
0.00560328
0.005581
0.00555846
0.00553539
0.00551158
0.00548677
0.00546072
0.00543319
0.00540418
0.0053736
0.00534133
0.00530731
0.00527149
0.00523384
0.00519439
0.00515319
0.00511032
0.00506586
0.00501996
0.00497276
0.00492439
0.00487513
0.00482502
0.00477425
0.00472301
0.00467148
0.00461989
0.0045686
0.00451775
0.0044674
0.00441759
0.00436843
0.00432009
0.00427274
0.00422652
0.00418154
0.0041379
0.00409577
0.00405568
0.00401888
0.00398498
0.00395339
0.00392367
0.0038955
0.00386865
0.0038429
0.00381811
0.0037941
0.00377069
0.00374726
0.0037236
0.00369975
0.00366954
7.22182e-05
0.000278121
0.000507088
0.000711857
0.000886485
0.00103496
0.00116082
0.00126787
0.00135998
0.00144042
0.00151201
0.00157708
0.00163763
0.00169528
0.00175137
0.00180693
0.00186278
0.00191952
0.00197755
0.00203712
0.00209838
0.00216134
0.00222597
0.00229217
0.00235981
0.00242873
0.00249876
0.00256977
0.00264159
0.00271408
0.00278711
0.00286052
0.00293417
0.00300795
0.00308175
0.00315549
0.00322909
0.00330247
0.00337557
0.00344832
0.00352069
0.00359265
0.00366417
0.00373526
0.0038059
0.00387609
0.00394586
0.00401521
0.00408416
0.00415273
0.00422094
0.00428886
0.00435654
0.004424
0.00449127
0.00455837
0.00462532
0.00469213
0.00475882
0.0048254
0.00489186
0.00495819
0.00502437
0.00509037
0.00515613
0.00522161
0.00528674
0.00535144
0.00541562
0.00547918
0.005542
0.00560396
0.00566492
0.00572476
0.0057833
0.0058404
0.0058959
0.00594963
0.00600143
0.00605115