/*--------------------------------*- C++ -*----------------------------------*\
  =========                 |
  \\      /  F ield         | OpenFOAM: The Open Source CFD Toolbox
   \\    /   O peration     | Website:  https://openfoam.org
    \\  /    A nd           | Version:  7
     \\/     M anipulation  |
\*---------------------------------------------------------------------------*/
FoamFile
{
    version     2.0;
    format      ascii;
    class       volScalarField;
    location    "100";
    object      p;
}
// * * * * * * * * * * * * * * * * * * * * * * * * * * * * * * * * * * * * * //

dimensions      [0 2 -2 0 0 0 0];

internalField   nonuniform List<scalar> 
12225
(
-2.15076
-4.33916
-5.43848
-5.75818
-5.93824
-6.10567
-6.23525
-6.32787
-6.40113
-6.46411
-6.51845
-6.56581
-6.60517
-6.63632
-6.65759
-6.65625
-6.65027
-6.49924
-5.31426
-6.08243
-6.24227
-6.14905
-6.13532
-6.20163
-6.27717
-6.34038
-6.3967
-6.44982
-6.49889
-6.54248
-6.58035
-6.61106
-6.63455
-6.6404
-6.64957
-6.60167
-5.71543
-5.70018
-5.82686
-5.90427
-5.99801
-6.11666
-6.22187
-6.30423
-6.37284
-6.43404
-6.48882
-6.53677
-6.57858
-6.61329
-6.642
-6.6587
-6.68335
-6.6946
-5.5935
-5.53636
-5.77726
-5.93469
-6.03528
-6.13996
-6.23569
-6.31333
-6.379
-6.43816
-6.49173
-6.53931
-6.58157
-6.61808
-6.65044
-6.67687
-6.71277
-6.75743
-5.58321
-5.60741
-5.83482
-5.97551
-6.05797
-6.14854
-6.23789
-6.31329
-6.37793
-6.43648
-6.49
-6.53821
-6.58184
-6.62105
-6.65779
-6.69286
-6.73761
-6.79716
-5.64125
-5.68997
-5.86361
-5.98664
-6.06705
-6.15346
-6.23972
-6.31404
-6.37829
-6.43663
-6.49032
-6.53932
-6.58438
-6.62618
-6.66683
-6.70838
-6.75892
-6.82397
-5.70169
-5.74572
-5.88028
-5.99576
-6.07848
-6.16127
-6.24351
-6.31613
-6.37974
-6.43775
-6.49152
-6.54123
-6.58764
-6.63176
-6.67566
-6.72175
-6.77565
-6.84145
-5.75536
-5.79278
-5.90215
-6.00966
-6.09172
-6.17005
-6.24791
-6.31858
-6.38145
-6.4391
-6.49292
-6.54329
-6.59094
-6.63703
-6.68344
-6.73244
-6.78775
-6.85183
-5.80526
-5.83818
-5.92855
-6.02579
-6.105
-6.17921
-6.25298
-6.32153
-6.38349
-6.4407
-6.49448
-6.54536
-6.59403
-6.64162
-6.68976
-6.74029
-6.79557
-6.85673
-5.85252
-5.88157
-5.95658
-6.04313
-6.11855
-6.18908
-6.259
-6.32517
-6.38599
-6.44261
-6.49622
-6.5474
-6.59676
-6.64532
-6.69441
-6.74538
-6.79963
-6.85741
-5.89708
-5.92239
-5.98513
-6.06172
-6.13273
-6.19969
-6.26593
-6.32956
-6.38902
-6.44489
-6.49816
-6.54937
-6.59907
-6.64808
-6.69742
-6.74802
-6.80062
-6.85499
-5.93536
-5.95753
-6.01132
-6.07967
-6.14621
-6.20988
-6.27292
-6.33417
-6.39221
-6.44723
-6.49999
-6.55099
-6.60067
-6.64965
-6.6987
-6.74842
-6.79921
-6.85061
-5.97078
-5.99031
-6.0368
-6.0978
-6.15982
-6.22024
-6.28026
-6.33916
-6.39568
-6.44973
-6.50182
-6.55239
-6.60178
-6.65042
-6.69882
-6.74737
-6.7962
-6.84485
-6.00797
-6.025
-6.06476
-6.11848
-6.17548
-6.23226
-6.28901
-6.34526
-6.39996
-6.45276
-6.50389
-6.5537
-6.60244
-6.65036
-6.69771
-6.74464
-6.7912
-6.83693
-6.04571
-6.06038
-6.0942
-6.1411
-6.19283
-6.24565
-6.29898
-6.35234
-6.40491
-6.45613
-6.506
-6.55463
-6.60226
-6.64899
-6.69487
-6.73983
-6.78386
-6.82662
-6.08206
-6.09462
-6.12347
-6.16437
-6.21094
-6.25973
-6.3096
-6.35997
-6.41012
-6.45948
-6.50772
-6.55482
-6.60085
-6.64593
-6.68993
-6.73271
-6.7741
-6.81398
-6.11414
-6.12499
-6.14997
-6.186
-6.22804
-6.27305
-6.3197
-6.36718
-6.41481
-6.46204
-6.50842
-6.55368
-6.5978
-6.64081
-6.68266
-6.72309
-6.76192
-6.79902
-6.13757
-6.14726
-6.16964
-6.20231
-6.24105
-6.28311
-6.32716
-6.37223
-6.4176
-6.46274
-6.5072
-6.55053
-6.59261
-6.63345
-6.67304
-6.71114
-6.74756
-6.78218
-6.14543
-6.15467
-6.1761
-6.20753
-6.24498
-6.28576
-6.32849
-6.37219
-6.41614
-6.45977
-6.50263
-6.54429
-6.58456
-6.62344
-6.66097
-6.69695
-6.73122
-6.76371
-6.13015
-6.14003
-6.16289
-6.19626
-6.23564
-6.27781
-6.32143
-6.36562
-6.4098
-6.45327
-6.49572
-6.53666
-6.57611
-6.61392
-6.65028
-6.6849
-6.71781
-6.74892
-6.10386
-6.11477
-6.14031
-6.17761
-6.22073
-6.26574
-6.31141
-6.3573
-6.4026
-6.44675
-6.48934
-6.53029
-6.56944
-6.60694
-6.64264
-6.67662
-6.70864
-6.73908
-6.06904
-6.08098
-6.11061
-6.15446
-6.20308
-6.2515
-6.29986
-6.34816
-6.39536
-6.44061
-6.48378
-6.52496
-6.5642
-6.60156
-6.63697
-6.67045
-6.702
-6.73191
-6.02878
-6.0408
-6.07552
-6.12905
-6.18494
-6.23731
-6.28865
-6.33962
-6.38874
-6.4352
-6.47915
-6.52081
-6.56034
-6.59769
-6.63298
-6.66614
-6.69744
-6.72705
-5.98527
-5.99637
-6.03841
-6.10306
-6.16558
-6.22269
-6.27874
-6.33306
-6.38385
-6.43116
-6.47572
-6.51783
-6.55754
-6.59491
-6.62998
-6.66295
-6.69398
-6.7234
-5.93848
-5.9441
-6.00704
-6.08547
-6.14771
-6.20635
-6.26794
-6.32678
-6.37978
-6.42823
-6.4736
-6.51625
-6.55619
-6.59354
-6.62847
-6.66126
-6.69209
-6.72142
-5.89526
-5.85904
-5.96884
-6.08009
-6.14264
-6.19823
-6.26084
-6.32108
-6.37477
-6.42385
-6.46989
-6.51304
-6.55324
-6.59069
-6.62566
-6.65845
-6.68928
-6.71855
-5.90954
-5.75071
-5.87986
-6.03419
-6.12467
-6.19635
-6.26561
-6.32698
-6.38023
-6.42887
-6.47444
-6.51706
-6.55663
-6.59344
-6.62779
-6.66003
-6.69044
-6.71941
-6.03276
-5.85249
-5.86693
-5.93926
-6.02798
-6.12754
-6.21858
-6.29279
-6.35492
-6.41038
-6.461
-6.50712
-6.54921
-6.58782
-6.62343
-6.65657
-6.68777
-6.71787
-5.74015
-6.33131
-6.42045
-6.29643
-6.24239
-6.26988
-6.31723
-6.36091
-6.4029
-6.44538
-6.48716
-6.52684
-6.56411
-6.59898
-6.63144
-6.66175
-6.69027
-6.71896
-2.75083
-4.51424
-5.51918
-5.81861
-5.96807
-6.11198
-6.22639
-6.30781
-6.37246
-6.42961
-6.48111
-6.52748
-6.56948
-6.60786
-6.64302
-6.6749
-6.70349
-6.72721
-8.07096
-8.069
-8.06714
-8.069
-8.07266
-8.07715
-8.08255
-8.08851
-8.09455
-8.10039
-8.10579
-8.11052
-8.11563
-8.12188
-8.12866
-8.13686
-8.14886
-8.16433
-8.18267
-8.20187
-8.21618
-8.22726
-8.24522
-8.26966
-8.29637
-8.32563
-8.35752
-8.39185
-8.42854
-8.46725
-8.50777
-8.54963
-8.59254
-8.63598
-8.67962
-8.72294
-8.76563
-8.80726
-8.84755
-8.88616
-8.92289
-8.9575
-8.98987
-9.01982
-9.04727
-9.07215
-9.09438
-9.11395
-9.13081
-9.14497
-9.15637
-9.16512
-9.17115
-9.17455
-9.17525
-9.1734
-9.16892
-9.16196
-9.15239
-9.14047
-9.12605
-9.10941
-9.09036
-9.06923
-9.04583
-9.02054
-8.99314
-8.96404
-8.93298
-8.90046
-8.86618
-8.83064
-8.79351
-8.75534
-8.71579
-8.67549
-8.634
-8.59186
-8.5486
-8.50492
-8.46022
-8.41505
-8.36873
-8.32191
-8.27385
-8.2251
-8.17476
-8.12285
-8.06832
-8.01086
-7.95069
-7.88729
-7.82005
-7.74818
-7.67108
-7.58795
-7.4981
-7.40058
-7.2946
-7.17913
-7.05295
-6.91475
-6.76314
-6.59656
-6.41319
-6.21155
-5.9902
-5.74818
-5.48411
-5.19695
-4.88543
-4.54884
-4.18617
-3.79692
-3.38041
-2.93656
-2.46526
-1.96703
-1.44248
-0.892846
-0.319491
0.275842
0.891228
1.52417
2.17187
2.83104
3.49825
4.16983
4.84208
5.51126
6.17372
6.82591
7.46451
8.08646
8.68894
9.26953
9.82613
10.357
10.8609
11.3369
11.7847
12.2042
12.5958
12.9605
13.2994
13.6136
13.9039
14.1706
14.4148
14.6374
14.8397
15.0231
15.1887
15.3381
15.4723
15.5927
15.7004
15.7965
15.8821
15.9581
16.0254
16.0848
16.1371
16.183
16.2232
16.2583
16.2888
16.3154
16.3385
16.3588
16.3769
16.3934
16.4092
16.4255
16.4442
16.4681
16.504
16.5593
16.662
16.8004
-8.06965
-8.06841
-8.06712
-8.06898
-8.07222
-8.07558
-8.079
-8.08235
-8.08537
-8.08809
-8.09054
-8.09288
-8.09586
-8.09998
-8.10504
-8.11167
-8.11964
-8.12771
-8.13564
-8.14318
-8.1524
-8.17018
-8.19585
-8.22062
-8.24651
-8.27494
-8.30619
-8.34016
-8.37674
-8.41562
-8.45651
-8.49897
-8.54261
-8.58693
-8.63148
-8.67575
-8.71935
-8.76186
-8.80295
-8.8423
-8.8797
-8.91491
-8.9478
-8.97824
-9.00613
-9.0314
-9.05399
-9.07391
-9.09108
-9.10553
-9.11724
-9.12625
-9.13253
-9.13613
-9.13704
-9.13534
-9.13098
-9.12408
-9.11458
-9.10263
-9.08818
-9.07137
-9.05217
-9.03077
-9.00711
-8.9814
-8.95361
-8.92397
-8.89241
-8.85922
-8.82432
-8.78802
-8.75022
-8.71123
-8.67099
-8.62982
-8.58757
-8.54453
-8.50059
-8.45608
-8.41077
-8.36492
-8.31827
-8.27107
-8.22297
-8.17415
-8.12417
-8.07281
-8.01924
-7.96339
-7.9051
-7.84394
-7.77919
-7.71012
-7.63606
-7.55625
-7.46995
-7.3763
-7.27421
-7.1623
-7.03968
-6.90512
-6.75734
-6.59481
-6.4162
-6.22007
-6.00511
-5.76982
-5.51307
-5.23373
-4.93075
-4.60284
-4.24924
-3.86928
-3.4624
-3.02822
-2.56675
-2.07821
-1.56331
-1.02311
-0.458873
0.127816
0.735149
1.36078
2.002
2.65564
3.31836
3.98654
4.65652
5.32457
5.98699
6.64021
7.2808
7.90561
8.51175
9.09664
9.65812
10.1944
10.704
11.186
11.6399
12.0657
12.4635
12.834
13.178
13.4966
13.791
14.0623
14.311
14.5384
14.7456
14.9337
15.1041
15.2581
15.3968
15.5216
15.6335
15.7336
15.823
15.9026
15.9733
16.036
16.0913
16.1401
16.183
16.2207
16.2536
16.2824
16.3077
16.33
16.35
16.3683
16.3859
16.4039
16.4243
16.4495
16.485
16.5358
16.6267
16.7405
-8.06305
-8.06379
-8.06428
-8.06678
-8.06978
-8.07209
-8.07369
-8.07474
-8.07529
-8.07543
-8.07537
-8.07546
-8.0763
-8.07825
-8.08135
-8.08596
-8.09231
-8.09986
-8.10831
-8.11756
-8.12833
-8.14296
-8.16264
-8.18531
-8.21103
-8.23994
-8.27193
-8.30668
-8.34389
-8.38316
-8.42411
-8.46629
-8.5093
-8.55268
-8.59606
-8.63904
-8.68128
-8.72244
-8.76224
-8.80043
-8.83679
-8.87112
-8.90328
-8.93314
-8.96058
-8.98553
-9.00792
-9.0277
-9.04483
-9.05929
-9.07106
-9.08016
-9.08655
-9.09027
-9.0913
-9.0897
-9.08545
-9.07861
-9.06918
-9.05723
-9.04276
-9.02587
-9.00658
-8.98498
-8.96112
-8.93512
-8.90702
-8.87697
-8.84501
-8.8113
-8.77592
-8.73902
-8.70067
-8.66105
-8.62023
-8.5784
-8.53559
-8.49193
-8.44749
-8.40241
-8.35668
-8.3104
-8.26354
-8.21616
-8.16811
-8.11941
-8.06986
-8.0191
-7.96664
-7.91224
-7.85589
-7.79711
-7.7351
-7.66933
-7.59896
-7.52336
-7.44159
-7.35283
-7.25587
-7.14953
-7.03269
-6.90416
-6.76268
-6.60675
-6.43521
-6.24659
-6.03968
-5.81287
-5.56522
-5.29538
-5.0023
-4.68466
-4.34178
-3.97262
-3.57677
-3.1538
-2.70372
-2.22659
-1.72308
-1.19405
-0.64074
-0.0645337
0.532795
1.14909
1.78173
2.42772
3.08378
3.74641
4.412
5.07683
5.73724
6.38958
7.03044
7.65653
8.26495
8.85304
9.41858
9.95972
10.4751
10.9636
11.4249
11.8588
12.2652
12.6449
12.9984
13.3267
13.6306
13.9109
14.1686
14.4045
14.6199
14.8159
14.9937
15.1548
15.3002
15.4313
15.5491
15.6548
15.7493
15.8338
15.909
15.9759
16.0352
16.0877
16.134
16.1748
16.2107
16.2424
16.2703
16.295
16.3172
16.3376
16.3572
16.377
16.3989
16.4251
16.4599
16.5062
16.5821
16.6584
-8.04828
-8.05228
-8.05616
-8.06045
-8.0642
-8.06667
-8.0679
-8.0681
-8.06747
-8.06621
-8.06467
-8.06329
-8.06261
-8.06304
-8.06485
-8.06833
-8.07381
-8.08127
-8.09072
-8.10218
-8.11595
-8.13257
-8.1525
-8.17552
-8.20158
-8.23057
-8.26234
-8.29661
-8.33313
-8.37151
-8.41143
-8.45247
-8.49427
-8.53642
-8.57858
-8.62034
-8.66139
-8.70141
-8.74012
-8.77727
-8.81267
-8.84611
-8.87745
-8.90655
-8.93332
-8.95766
-8.97949
-8.99878
-9.01546
-9.02952
-9.04093
-9.04968
-9.05576
-9.05918
-9.05992
-9.05803
-9.05349
-9.04634
-9.0366
-9.02432
-9.00951
-8.99225
-8.97257
-8.95056
-8.92627
-8.8998
-8.87122
-8.84066
-8.80819
-8.77395
-8.73804
-8.70061
-8.66176
-8.62165
-8.58039
-8.53814
-8.49499
-8.45105
-8.40643
-8.36122
-8.31549
-8.26929
-8.22265
-8.17558
-8.12801
-8.07989
-8.03109
-7.98131
-7.93004
-7.87731
-7.82283
-7.76616
-7.70669
-7.64373
-7.57665
-7.50464
-7.42689
-7.3424
-7.25008
-7.14874
-7.0372
-6.91423
-6.77849
-6.62867
-6.46341
-6.28147
-6.08147
-5.86202
-5.62192
-5.35996
-5.0749
-4.76557
-4.43107
-4.07047
-3.68322
-3.269
-2.82768
-2.35933
-1.86445
-1.34385
-0.79867
-0.230237
0.359723
0.969129
1.59544
2.23575
2.88687
3.54536
4.20766
4.87005
5.52888
6.18048
6.82138
7.44829
8.05824
8.64858
9.21708
9.76194
10.2818
10.7757
11.243
11.6835
12.0972
12.4844
12.8456
13.1816
13.4931
13.7808
14.0455
14.2884
14.5105
14.713
14.8971
15.064
15.2151
15.3515
15.4744
15.5848
15.6838
15.7724
15.8515
15.922
15.9847
16.0403
16.0895
16.133
16.1715
16.2055
16.2356
16.2623
16.2864
16.3085
16.3295
16.3505
16.3731
16.399
16.4316
16.4715
16.5307
16.5741
-8.02582
-8.03349
-8.04202
-8.0492
-8.05461
-8.05809
-8.05989
-8.06038
-8.05989
-8.05872
-8.05727
-8.056
-8.05541
-8.05595
-8.058
-8.06186
-8.06781
-8.07596
-8.08647
-8.09943
-8.11503
-8.13342
-8.15473
-8.17886
-8.20581
-8.23541
-8.26751
-8.30185
-8.33816
-8.37608
-8.41531
-8.45546
-8.4962
-8.53715
-8.57798
-8.61835
-8.65798
-8.69657
-8.73389
-8.76968
-8.80378
-8.836
-8.86618
-8.89421
-8.91998
-8.94339
-8.96437
-8.98286
-8.9988
-9.01216
-9.02291
-9.03103
-9.0365
-9.03932
-9.03947
-9.03699
-9.03185
-9.0241
-9.01373
-9.00081
-8.98535
-8.96742
-8.94705
-8.92433
-8.89931
-8.87211
-8.84279
-8.81148
-8.77827
-8.74329
-8.70668
-8.66857
-8.62909
-8.58841
-8.54665
-8.50398
-8.46053
-8.41641
-8.37175
-8.32666
-8.2812
-8.23545
-8.18944
-8.14317
-8.0966
-8.04967
-8.00226
-7.95406
-7.90482
-7.85412
-7.80219
-7.74818
-7.69171
-7.63198
-7.56851
-7.50038
-7.42685
-7.34683
-7.25932
-7.16313
-7.05698
-6.93971
-6.80977
-6.66603
-6.50693
-6.33143
-6.13789
-5.9252
-5.6918
-5.43672
-5.15841
-4.85598
-4.52818
-4.17444
-3.79387
-3.38629
-2.95132
-2.48919
-2.00016
-1.48511
-0.944995
-0.381202
0.204642
0.81041
1.43362
2.0714
2.72057
3.37776
4.03931
4.70161
5.36085
6.01344
6.65577
7.28463
7.89693
8.49009
9.06189
9.61056
10.1347
10.6333
11.1056
11.5514
11.9705
12.3632
12.73
13.0714
13.3881
13.681
13.9508
14.1986
14.4255
14.6327
14.8213
14.9926
15.1479
15.2883
15.415
15.529
15.6314
15.7232
15.8053
15.8786
15.9439
16.0019
16.0533
16.0989
16.1393
16.175
16.2067
16.235
16.2604
16.2836
16.3054
16.3268
16.349
16.3735
16.4026
16.4351
16.4789
16.4961
-7.99936
-8.01075
-8.02465
-8.03536
-8.04307
-8.04828
-8.05145
-8.05306
-8.05357
-8.05339
-8.05298
-8.05277
-8.05328
-8.05492
-8.05813
-8.0632
-8.07042
-8.07993
-8.0919
-8.1064
-8.12354
-8.14337
-8.16593
-8.19113
-8.21892
-8.24911
-8.28153
-8.3159
-8.35196
-8.38938
-8.42786
-8.46706
-8.50668
-8.54637
-8.58585
-8.62481
-8.663
-8.70014
-8.73603
-8.77044
-8.8032
-8.83412
-8.86308
-8.88995
-8.91462
-8.93699
-8.95698
-8.97453
-8.98958
-9.00209
-9.01201
-9.01932
-9.02398
-9.02601
-9.02537
-9.02208
-9.01612
-9.00754
-8.99631
-8.98252
-8.96615
-8.9473
-8.92599
-8.90231
-8.87633
-8.84815
-8.81785
-8.78556
-8.75139
-8.71549
-8.67798
-8.63902
-8.59877
-8.55738
-8.51503
-8.47188
-8.42806
-8.38375
-8.33907
-8.29414
-8.24907
-8.20392
-8.15876
-8.11358
-8.06836
-8.02303
-7.9775
-7.93151
-7.88455
-7.83687
-7.78785
-7.73726
-7.68434
-7.62857
-7.56923
-7.5056
-7.43675
-7.36173
-7.27948
-7.18881
-7.08849
-6.97713
-6.85339
-6.71585
-6.56324
-6.39418
-6.2073
-6.00118
-5.77445
-5.52579
-5.25398
-4.95786
-4.63639
-4.28871
-3.91407
-3.51201
-3.08229
-2.62499
-2.14042
-1.6293
-1.09256
-0.531519
0.0521518
0.656332
1.27854
1.9159
2.56524
3.22312
3.88593
4.54993
5.21133
5.86644
6.51168
7.14376
7.75963
8.35669
8.93273
9.48588
10.0147
10.518
10.9952
11.4458
11.8697
12.267
12.6383
12.984
13.305
13.6018
13.8755
14.1271
14.3577
14.5684
14.7605
14.9352
15.0937
15.2372
15.3668
15.4837
15.5888
15.6832
15.7678
15.8433
15.9107
15.9706
16.0239
16.0711
16.1129
16.15
16.1829
16.2122
16.2384
16.2622
16.2843
16.3055
16.3268
16.3491
16.3738
16.3986
16.4291
16.4254
-7.9732
-7.9879
-8.00689
-8.02107
-8.03126
-8.03859
-8.0436
-8.04686
-8.04894
-8.05031
-8.05147
-8.05286
-8.05499
-8.05825
-8.06307
-8.06973
-8.07854
-8.08963
-8.10317
-8.11922
-8.13784
-8.15901
-8.18272
-8.20887
-8.23734
-8.26795
-8.30051
-8.33477
-8.37047
-8.40732
-8.44504
-8.48332
-8.52188
-8.5604
-8.59864
-8.6363
-8.67315
-8.70895
-8.74349
-8.77657
-8.80803
-8.8377
-8.86544
-8.89114
-8.91468
-8.93597
-8.95491
-8.97146
-8.98552
-8.99707
-9.00604
-9.01241
-9.01614
-9.01722
-9.01562
-9.01135
-9.00438
-8.99476
-8.98248
-8.96759
-8.95011
-8.9301
-8.90762
-8.88275
-8.85557
-8.82618
-8.79468
-8.76121
-8.72587
-8.68885
-8.65027
-8.61032
-8.56915
-8.52696
-8.48392
-8.44021
-8.39601
-8.35149
-8.3068
-8.26209
-8.21747
-8.17304
-8.12887
-8.08497
-8.04133
-7.99789
-7.95456
-7.91102
-7.8671
-7.82244
-7.77704
-7.73032
-7.6815
-7.63019
-7.57552
-7.51686
-7.45319
-7.38362
-7.30705
-7.22227
-7.12808
-7.02289
-6.90555
-6.77438
-6.62838
-6.46581
-6.28558
-6.08592
-5.86576
-5.62341
-5.3579
-5.06781
-4.75234
-4.41023
-4.04092
-3.6437
-3.21852
-2.76522
-2.28423
-1.77601
-1.24158
-0.682136
-0.0994459
0.504406
1.12689
1.76513
2.41592
3.07575
3.74102
4.40786
5.07252
5.73117
6.38031
7.01653
7.63687
8.2386
8.81946
9.37753
9.91126
10.4195
10.9015
11.3567
11.7851
12.1868
12.5621
12.9116
13.2361
13.5364
13.8134
14.0682
14.3017
14.5154
14.7102
14.8876
15.0487
15.1947
15.3267
15.4459
15.5532
15.6497
15.7363
15.8138
15.883
15.9446
15.9993
16.0479
16.0909
16.1291
16.1629
16.1929
16.2197
16.2437
16.2657
16.2862
16.306
16.3255
16.3455
16.3629
16.3819
16.3613
-7.95091
-7.96832
-7.99151
-8.00865
-8.02114
-8.03058
-8.03757
-8.04268
-8.04656
-8.04971
-8.05268
-8.05589
-8.05984
-8.06489
-8.07146
-8.07981
-8.09023
-8.10286
-8.11787
-8.13527
-8.15513
-8.17739
-8.20202
-8.22888
-8.25786
-8.28874
-8.32135
-8.35544
-8.39077
-8.42706
-8.46406
-8.50147
-8.53904
-8.57649
-8.61358
-8.65004
-8.68567
-8.72023
-8.75354
-8.78539
-8.81565
-8.84414
-8.87074
-8.89532
-8.91777
-8.938
-8.95592
-8.97145
-8.98451
-8.99506
-9.00303
-9.00839
-9.0111
-9.01113
-9.00845
-9.00307
-8.99496
-8.98415
-8.97064
-8.95447
-8.93568
-8.91432
-8.89046
-8.86419
-8.83558
-8.80476
-8.77185
-8.73698
-8.70029
-8.66196
-8.62214
-8.58104
-8.53883
-8.49573
-8.45192
-8.40762
-8.36302
-8.3183
-8.27366
-8.22924
-8.18519
-8.14162
-8.09861
-8.05619
-8.01437
-7.97309
-7.93224
-7.8916
-7.85079
-7.80989
-7.76844
-7.72591
-7.68173
-7.63523
-7.58576
-7.53246
-7.47446
-7.41076
-7.34025
-7.26175
-7.17387
-7.07522
-6.96431
-6.8398
-6.70029
-6.5444
-6.37063
-6.17755
-5.96373
-5.72772
-5.46819
-5.18396
-4.87392
-4.53699
-4.17238
-3.77951
-3.35815
-2.90822
-2.42995
-1.92384
-1.39078
-0.832044
-0.249382
0.355084
0.978796
1.61885
2.27199
2.93467
3.6032
4.27372
4.94237
5.60535
6.25908
6.90014
7.52545
8.13228
8.71825
9.2814
9.82014
10.3333
10.8199
11.2796
11.7122
12.1179
12.4969
12.8499
13.1777
13.481
13.7608
14.0182
14.2544
14.4704
14.6677
14.8473
15.0105
15.1586
15.2926
15.4137
15.5228
15.6211
15.7093
15.7884
15.8591
15.9222
15.9783
16.0281
16.0722
16.1113
16.1458
16.1764
16.2034
16.2274
16.2489
16.2685
16.2865
16.303
16.3182
16.3284
16.3375
16.3034
-7.93493
-7.95434
-7.98046
-7.99976
-8.0141
-8.02538
-8.03419
-8.04108
-8.04672
-8.05165
-8.05641
-8.06142
-8.06714
-8.07393
-8.08216
-8.09209
-8.10398
-8.11796
-8.13419
-8.15269
-8.1735
-8.19655
-8.22181
-8.24912
-8.27836
-8.30933
-8.34185
-8.37567
-8.41058
-8.4463
-8.4826
-8.5192
-8.55587
-8.59235
-8.62841
-8.66381
-8.69836
-8.73182
-8.76404
-8.79481
-8.824
-8.85144
-8.87701
-8.90058
-8.92205
-8.9413
-8.95824
-8.97279
-8.98488
-8.99444
-9.00141
-9.00574
-9.00737
-9.0063
-9.00246
-8.99588
-8.9865
-8.97437
-8.95948
-8.94189
-8.9216
-8.89871
-8.87327
-8.84539
-8.81515
-8.78271
-8.74816
-8.71169
-8.67345
-8.63362
-8.5924
-8.54999
-8.50661
-8.46249
-8.41784
-8.37289
-8.32787
-8.28298
-8.23843
-8.19439
-8.15103
-8.10847
-8.06682
-8.02611
-7.98635
-7.9475
-7.90947
-7.87198
-7.83492
-7.79781
-7.76077
-7.72287
-7.68369
-7.64244
-7.59855
-7.55105
-7.49911
-7.44169
-7.37762
-7.30575
-7.22444
-7.13252
-7.02824
-6.91053
-6.77766
-6.62855
-6.46132
-6.27482
-6.06723
-5.8374
-5.58363
-5.30498
-4.99998
-4.66781
-4.30739
-3.91836
-3.50021
-3.053
-2.57671
-2.07195
-1.53948
-0.980693
-0.397292
0.208525
0.834185
1.47676
2.1329
2.7991
3.47152
4.14636
4.81964
5.48759
6.14645
6.79282
7.42349
8.03566
8.62693
9.19522
9.73896
10.2568
10.748
11.212
11.6486
12.0579
12.4403
12.7965
13.1272
13.4331
13.7155
13.9753
14.2136
14.4318
14.631
14.8126
14.9776
15.1274
15.2632
15.3858
15.4965
15.5963
15.6859
15.7664
15.8384
15.9027
15.96
16.0109
16.056
16.0958
16.131
16.1619
16.1891
16.2129
16.2338
16.2521
16.268
16.2814
16.2919
16.2955
16.296
16.251
-7.92659
-7.94716
-7.97478
-7.99532
-8.01091
-8.02357
-8.03384
-8.04223
-8.0494
-8.0559
-8.06224
-8.06884
-8.07613
-8.08443
-8.0941
-8.10535
-8.11845
-8.13351
-8.15068
-8.16996
-8.19142
-8.21496
-8.24056
-8.26805
-8.29733
-8.32819
-8.36046
-8.3939
-8.42831
-8.46343
-8.49905
-8.53489
-8.57074
-8.60635
-8.64152
-8.676
-8.70962
-8.74216
-8.77345
-8.80331
-8.8316
-8.85814
-8.88284
-8.90553
-8.92613
-8.9445
-8.96057
-8.97423
-8.9854
-8.99401
-8.99999
-9.00328
-9.00382
-9.0016
-8.99654
-8.98866
-8.97792
-8.96435
-8.94793
-8.92875
-8.90681
-8.8822
-8.85499
-8.82531
-8.79324
-8.75895
-8.72258
-8.68431
-8.64431
-8.60281
-8.56001
-8.51615
-8.47147
-8.42621
-8.38064
-8.335
-8.28953
-8.24449
-8.20007
-8.1565
-8.11395
-8.07256
-8.03244
-7.99366
-7.95622
-7.92009
-7.88517
-7.85127
-7.81793
-7.78538
-7.75286
-7.72005
-7.68615
-7.6506
-7.61259
-7.57129
-7.52578
-7.47498
-7.41773
-7.3526
-7.27822
-7.19305
-7.09575
-6.98486
-6.85897
-6.71653
-6.55604
-6.37589
-6.17458
-5.9506
-5.70251
-5.429
-5.12881
-4.80088
-4.44432
-4.05857
-3.6432
-3.19807
-2.72323
-2.21919
-1.6868
-1.12743
-0.542811
0.0648301
0.692897
1.3384
1.99804
2.66821
3.3451
4.0248
4.7033
5.37669
6.04114
6.69314
7.32942
7.94711
8.54372
9.11717
9.66578
10.1883
10.6838
11.1517
11.5921
12.0048
12.3904
12.7495
13.0827
13.3911
13.6757
13.9376
14.1779
14.3979
14.5989
14.7821
14.9487
15.1001
15.2372
15.3613
15.4733
15.5744
15.6652
15.7469
15.82
15.8854
15.9437
15.9956
16.0415
16.0821
16.1178
16.149
16.1762
16.1997
16.2198
16.2368
16.2506
16.2608
16.2668
16.2642
16.2575
16.2035
-7.92609
-7.94697
-7.97466
-7.99557
-8.01178
-8.02525
-8.03649
-8.04596
-8.05429
-8.062
-8.0696
-8.07746
-8.08599
-8.09548
-8.10625
-8.1185
-8.13249
-8.14829
-8.16608
-8.18583
-8.20763
-8.23137
-8.25703
-8.28446
-8.31356
-8.34413
-8.37601
-8.40898
-8.44283
-8.47734
-8.51228
-8.54741
-8.58253
-8.61738
-8.65179
-8.6855
-8.71836
-8.75013
-8.78068
-8.8098
-8.83736
-8.86318
-8.88716
-8.90913
-8.929
-8.94663
-8.96193
-8.97478
-8.98511
-8.99282
-8.99783
-9.00009
-8.99952
-8.99609
-8.98975
-8.98049
-8.96827
-8.95312
-8.93505
-8.9141
-8.89033
-8.86381
-8.83464
-8.80294
-8.76884
-8.73251
-8.6941
-8.65383
-8.61189
-8.56853
-8.52399
-8.47854
-8.43242
-8.38595
-8.33938
-8.293
-8.24708
-8.2019
-8.15769
-8.11467
-8.07305
-8.03299
-7.99461
-7.95797
-7.92309
-7.88995
-7.85844
-7.82829
-7.79937
-7.77126
-7.74383
-7.71637
-7.68812
-7.65853
-7.62673
-7.59192
-7.55313
-7.50917
-7.45891
-7.4007
-7.33336
-7.25512
-7.16492
-7.06093
-6.94202
-6.80624
-6.65237
-6.47844
-6.28324
-6.06487
-5.82219
-5.55352
-5.25785
-4.93385
-4.58086
-4.19805
-3.78513
-3.34171
-2.868
-2.36437
-1.83183
-1.27165
-0.685617
-0.0758964
0.554891
1.20372
1.86731
2.54194
3.22381
3.90882
4.59296
5.27211
5.94244
6.60025
7.24227
7.86552
8.46745
9.04597
9.59932
10.1262
10.6258
11.0976
11.5414
11.9573
12.3458
12.7074
13.0431
13.3537
13.6402
13.9039
14.146
14.3676
14.5701
14.7548
14.9228
15.0755
15.2139
15.3393
15.4525
15.5547
15.6466
15.7293
15.8035
15.8699
15.9291
15.9818
16.0285
16.0697
16.1059
16.1373
16.1644
16.1875
16.2068
16.2223
16.234
16.2411
16.2428
16.2348
16.2217
16.1604
-7.93279
-7.9532
-7.97979
-8.00027
-8.01647
-8.03014
-8.04179
-8.05184
-8.06087
-8.06937
-8.07781
-8.08652
-8.09589
-8.10618
-8.11768
-8.13057
-8.14509
-8.1613
-8.17937
-8.19929
-8.22112
-8.24479
-8.27026
-8.29741
-8.32614
-8.35626
-8.38764
-8.42004
-8.4533
-8.48717
-8.52148
-8.55595
-8.59041
-8.62461
-8.65838
-8.69147
-8.72372
-8.75491
-8.78489
-8.81346
-8.84047
-8.86576
-8.88919
-8.9106
-8.92989
-8.9469
-8.96154
-8.97368
-8.98321
-8.99006
-8.99412
-8.99534
-8.99362
-8.98895
-8.98124
-8.9705
-8.95668
-8.93981
-8.91991
-8.89703
-8.87123
-8.84261
-8.81126
-8.77734
-8.74098
-8.70239
-8.66174
-8.61927
-8.5752
-8.52981
-8.48337
-8.43618
-8.38853
-8.34074
-8.29312
-8.24598
-8.19962
-8.15433
-8.11039
-8.06804
-8.02749
-7.98892
-7.95246
-7.91818
-7.88612
-7.85622
-7.82839
-7.80239
-7.77789
-7.75485
-7.7327
-7.7108
-7.6885
-7.66507
-7.63974
-7.61163
-7.57969
-7.54278
-7.49947
-7.44841
-7.38802
-7.31696
-7.23368
-7.13675
-7.02455
-6.8955
-6.74794
-6.58026
-6.39081
-6.17802
-5.94041
-5.67657
-5.38521
-5.06518
-4.71561
-4.33576
-3.92513
-3.48341
-3.01068
-2.50741
-1.97454
-1.41333
-0.82555
-0.213376
0.420538
1.07316
1.74111
2.42065
3.10782
3.79849
4.48848
5.17362
5.84992
6.51364
7.16137
7.7901
8.39724
8.98063
9.53851
10.0696
10.5731
11.0483
11.4953
11.9141
12.3052
12.6692
13.007
13.3195
13.6078
13.8732
14.1168
14.3398
14.5437
14.7297
14.899
15.0529
15.1926
15.319
15.4333
15.5366
15.6296
15.7132
15.7883
15.8556
15.9157
15.9692
16.0166
16.0584
16.0949
16.1265
16.1535
16.1761
16.1945
16.2087
16.2182
16.2223
16.2201
16.2071
16.1885
16.1213
-7.94557
-7.96485
-7.9895
-8.00885
-8.02442
-8.0377
-8.0492
-8.0593
-8.06853
-8.07733
-8.08614
-8.09526
-8.10504
-8.11571
-8.12754
-8.14069
-8.15538
-8.17167
-8.18971
-8.20949
-8.23109
-8.25443
-8.2795
-8.30617
-8.33437
-8.36392
-8.39469
-8.42646
-8.45909
-8.49234
-8.52603
-8.55992
-8.59381
-8.62747
-8.66072
-8.69334
-8.72514
-8.75591
-8.78549
-8.81367
-8.84032
-8.86523
-8.88827
-8.90927
-8.9281
-8.94461
-8.95867
-8.97016
-8.97897
-8.98498
-8.98809
-8.98824
-8.98533
-8.97932
-8.97014
-8.95778
-8.94221
-8.92345
-8.90153
-8.87652
-8.84847
-8.81752
-8.78376
-8.74737
-8.70852
-8.66742
-8.62429
-8.57938
-8.53296
-8.48533
-8.4368
-8.3877
-8.33836
-8.28915
-8.24038
-8.19243
-8.14561
-8.10024
-8.05662
-8.01502
-7.97566
-7.93874
-7.90439
-7.87269
-7.84366
-7.81728
-7.79339
-7.77177
-7.75221
-7.73423
-7.71771
-7.70168
-7.68554
-7.66854
-7.64989
-7.62869
-7.60377
-7.57403
-7.53784
-7.494
-7.44071
-7.37687
-7.3006
-7.21073
-7.10526
-6.98294
-6.84169
-6.68023
-6.49655
-6.28939
-6.05689
-5.79789
-5.5108
-5.19472
-4.84847
-4.47147
-4.06293
-3.6227
-3.15067
-2.64745
-2.11386
-1.55124
-0.961316
-0.346296
0.291127
0.947891
1.6205
2.3052
2.99784
3.69426
4.39013
5.08125
5.76348
6.43299
7.08631
7.72033
8.33246
8.92045
9.48261
10.0176
10.5246
11.0031
11.453
11.8744
12.2678
12.6339
12.9736
13.2878
13.5778
13.8446
14.0895
14.3139
14.519
14.7062
14.8767
15.0317
15.1724
15.3
15.4153
15.5195
15.6135
15.6981
15.7742
15.8423
15.9032
15.9575
16.0055
16.0478
16.0846
16.1163
16.1432
16.1654
16.1829
16.1956
16.2031
16.2044
16.1986
16.1812
16.1578
16.0858
-7.96309
-7.98079
-8.00294
-8.02061
-8.035
-8.04735
-8.05816
-8.06777
-8.07668
-8.08527
-8.09394
-8.10298
-8.11271
-8.12332
-8.13508
-8.1481
-8.16259
-8.17862
-8.19631
-8.21568
-8.23679
-8.25958
-8.28405
-8.31007
-8.3376
-8.36647
-8.39657
-8.42768
-8.45967
-8.49229
-8.52538
-8.55871
-8.59209
-8.62531
-8.65817
-8.69043
-8.72193
-8.75243
-8.78176
-8.80972
-8.83614
-8.86081
-8.88359
-8.90429
-8.92276
-8.93883
-8.95238
-8.96324
-8.97131
-8.97645
-8.97854
-8.97752
-8.97327
-8.96575
-8.9549
-8.9407
-8.92314
-8.90224
-8.87803
-8.85061
-8.82002
-8.78642
-8.74993
-8.71075
-8.66908
-8.62515
-8.57922
-8.53158
-8.48252
-8.4324
-8.38155
-8.33035
-8.27918
-8.22841
-8.17842
-8.12962
-8.08234
-8.03694
-7.99374
-7.95303
-7.91504
-7.87999
-7.84799
-7.81917
-7.7935
-7.77095
-7.75136
-7.73456
-7.72001
-7.70786
-7.69718
-7.68743
-7.67781
-7.66759
-7.65596
-7.6419
-7.62434
-7.60189
-7.57318
-7.53659
-7.49076
-7.43409
-7.36511
-7.28218
-7.18368
-7.0679
-6.93315
-6.7777
-6.5999
-6.39809
-6.17069
-5.91621
-5.6333
-5.32084
-4.97774
-4.60318
-4.19644
-3.75722
-3.28557
-2.78199
-2.2473
-1.68286
-1.09043
-0.47226
0.168935
0.829985
1.50736
2.19721
2.89531
3.59738
4.299
4.99585
5.68372
6.3587
7.01722
7.65616
8.27283
8.86502
9.431
9.9695
10.4796
10.961
11.4134
11.8372
12.2327
12.6007
12.942
13.2578
13.5491
13.8172
14.0634
14.289
14.4953
14.6836
14.8552
15.0112
15.153
15.2816
15.3979
15.5031
15.5981
15.6837
15.7606
15.8296
15.8914
15.9463
15.995
16.0377
16.0748
16.1066
16.1333
16.155
16.1717
16.1831
16.1887
16.1874
16.1783
16.157
16.1294
16.0536
-7.98405
-7.99991
-8.01923
-8.03482
-8.04756
-8.05847
-8.06804
-8.07662
-8.08465
-8.09249
-8.10051
-8.10896
-8.11815
-8.12824
-8.13947
-8.15195
-8.16587
-8.18128
-8.19832
-8.21698
-8.23735
-8.25936
-8.28304
-8.30826
-8.33498
-8.36305
-8.39236
-8.42273
-8.45401
-8.486
-8.51851
-8.55133
-8.58429
-8.61713
-8.64968
-8.68169
-8.71298
-8.7433
-8.7725
-8.80032
-8.82659
-8.8511
-8.87368
-8.89411
-8.91224
-8.92787
-8.94086
-8.95105
-8.95828
-8.96243
-8.96336
-8.961
-8.95521
-8.94597
-8.93321
-8.91691
-8.89707
-8.87371
-8.84688
-8.81666
-8.78317
-8.74654
-8.70697
-8.66465
-8.61982
-8.57275
-8.52373
-8.47309
-8.42118
-8.36836
-8.31504
-8.26162
-8.20853
-8.15617
-8.10501
-8.0554
-8.00779
-7.96252
-7.91995
-7.88038
-7.84406
-7.8112
-7.78194
-7.75636
-7.73445
-7.71608
-7.70134
-7.68958
-7.68093
-7.67462
-7.67036
-7.66724
-7.66448
-7.66134
-7.65699
-7.65031
-7.64026
-7.62526
-7.60408
-7.57487
-7.53646
-7.48696
-7.42519
-7.3491
-7.25742
-7.14802
-7.01956
-6.86991
-6.69774
-6.501
-6.27837
-6.0281
-5.74907
-5.43985
-5.09952
-4.72694
-4.3216
-3.88299
-3.41134
-2.90702
-2.37099
-1.80453
-1.20951
-0.588189
0.0567136
0.721936
1.40393
2.09867
2.80198
3.50935
4.21632
4.91841
5.61137
6.2912
6.95429
7.59748
8.21806
8.81384
9.38308
9.92454
10.4374
10.9211
11.3757
11.8014
12.1987
12.5683
12.9111
13.2282
13.5208
13.7902
14.0375
14.2642
14.4716
14.6611
14.8337
14.9909
15.1337
15.2633
15.3807
15.4869
15.5829
15.6695
15.7473
15.8172
15.8798
15.9354
15.9847
16.0279
16.0653
16.0972
16.1238
16.1451
16.1609
16.1711
16.1749
16.1712
16.1592
16.1345
16.1032
16.0244
-8.00823
-8.02216
-8.0386
-8.0518
-8.06241
-8.07133
-8.07906
-8.08597
-8.09248
-8.09892
-8.10566
-8.11291
-8.12098
-8.12998
-8.14015
-8.15157
-8.16443
-8.17876
-8.1947
-8.21225
-8.23149
-8.25236
-8.27491
-8.29901
-8.32465
-8.35168
-8.38001
-8.40948
-8.43995
-8.47121
-8.50312
-8.53541
-8.56793
-8.60041
-8.6327
-8.66449
-8.69564
-8.72584
-8.75495
-8.78266
-8.80882
-8.83316
-8.85551
-8.87563
-8.89335
-8.90845
-8.92078
-8.93014
-8.93639
-8.93936
-8.93893
-8.93499
-8.92744
-8.91622
-8.90125
-8.88256
-8.8601
-8.83397
-8.80417
-8.77085
-8.73412
-8.69417
-8.65119
-8.60543
-8.55714
-8.50666
-8.4543
-8.40047
-8.34552
-8.28991
-8.23403
-8.17839
-8.12338
-8.06956
-8.0173
-7.96707
-7.91941
-7.87451
-7.83296
-7.79484
-7.76066
-7.73037
-7.70435
-7.68242
-7.66473
-7.65127
-7.64161
-7.63574
-7.63302
-7.63325
-7.63569
-7.63947
-7.64387
-7.64808
-7.65115
-7.65206
-7.64947
-7.6421
-7.62828
-7.60655
-7.57527
-7.53298
-7.47799
-7.40872
-7.32338
-7.22028
-7.09759
-6.95361
-6.78653
-6.59465
-6.37631
-6.13001
-5.85438
-5.54812
-5.21006
-4.83919
-4.43485
-3.99672
-3.52489
-3.01986
-2.48255
-1.91426
-1.31687
-0.692642
-0.0443551
0.624738
1.31093
2.01015
2.71808
3.43013
4.14171
4.84827
5.54548
6.22932
6.89616
7.5428
8.16655
8.76522
9.3371
9.88095
10.396
10.8817
11.3381
11.7654
12.1642
12.5353
12.8794
13.1978
13.4916
13.7621