/*--------------------------------*- C++ -*----------------------------------*\
  =========                 |
  \\      /  F ield         | OpenFOAM: The Open Source CFD Toolbox
   \\    /   O peration     | Website:  https://openfoam.org
    \\  /    A nd           | Version:  7
     \\/     M anipulation  |
\*---------------------------------------------------------------------------*/
FoamFile
{
    version     2.0;
    format      ascii;
    class       surfaceScalarField;
    location    "100";
    object      phi;
}
// * * * * * * * * * * * * * * * * * * * * * * * * * * * * * * * * * * * * * //

dimensions      [0 3 -1 0 0 0 0];

internalField   nonuniform List<scalar> 
24170
(
3.129e-06
5.94063e-08
3.0466e-06
8.23995e-08
2.97347e-06
7.3124e-08
2.90478e-06
6.86827e-08
2.84038e-06
6.44001e-08
2.78294e-06
5.74273e-08
2.73349e-06
4.94469e-08
2.69137e-06
4.21152e-08
2.65548e-06
3.58882e-08
2.62474e-06
3.07351e-08
2.59814e-06
2.65931e-08
2.57479e-06
2.33459e-08
2.55393e-06
2.08542e-08
2.53481e-06
1.91099e-08
2.51674e-06
1.80665e-08
2.49766e-06
1.90789e-08
2.47732e-06
2.0338e-08
3.977e-08
2.43755e-06
3.45306e-06
2.35928e-08
3.457e-06
7.8461e-08
3.45052e-06
7.95983e-08
3.43904e-06
8.01598e-08
3.42422e-06
7.92113e-08
3.40693e-06
7.47163e-08
3.38764e-06
6.8736e-08
3.36701e-06
6.27325e-08
3.34574e-06
5.71586e-08
3.32439e-06
5.20783e-08
3.30344e-06
4.75418e-08
3.28313e-06
4.36435e-08
3.26365e-06
4.03292e-08
3.24497e-06
3.77918e-08
3.22718e-06
3.5847e-08
3.21007e-06
3.61931e-08
3.19419e-06
3.62132e-08
4.8647e-08
3.18531e-06
3.66815e-06
1.79551e-08
3.67918e-06
6.74292e-08
3.68539e-06
7.33887e-08
3.68939e-06
7.61531e-08
3.69095e-06
7.76517e-08
3.68993e-06
7.57343e-08
3.68672e-06
7.19429e-08
3.68178e-06
6.76672e-08
3.6755e-06
6.34356e-08
3.66819e-06
5.93841e-08
3.66011e-06
5.56124e-08
3.6515e-06
5.22541e-08
3.6425e-06
4.93258e-08
3.63323e-06
4.70619e-08
3.62367e-06
4.53997e-08
3.61432e-06
4.55383e-08
3.60429e-06
4.62409e-08
5.25919e-08
3.60034e-06
3.92584e-06
1.75008e-08
3.9359e-06
5.73722e-08
3.94252e-06
6.67598e-08
3.94803e-06
7.06454e-08
3.9524e-06
7.32818e-08
3.95528e-06
7.28459e-08
3.95687e-06
7.03499e-08
3.9574e-06
6.71339e-08
3.95705e-06
6.37784e-08
3.95597e-06
6.04662e-08
3.95426e-06
5.73109e-08
3.95205e-06
5.44641e-08
3.94939e-06
5.19789e-08
3.94638e-06
5.0069e-08
3.94302e-06
4.87589e-08
3.9398e-06
4.8763e-08
3.93649e-06
4.95444e-08
5.26809e-08
3.9364e-06
4.20819e-06
1.6435e-08
4.21596e-06
4.96019e-08
4.22163e-06
6.10865e-08
4.2267e-06
6.55763e-08
4.23139e-06
6.85822e-08
4.2353e-06
6.89387e-08
4.23838e-06
6.7264e-08
4.24075e-06
6.47624e-08
4.2425e-06
6.20204e-08
4.24373e-06
5.92414e-08
4.24449e-06
5.65477e-08
4.24486e-06
5.40895e-08
4.24489e-06
5.19462e-08
4.24467e-06
5.02891e-08
4.24424e-06
4.91772e-08
4.24402e-06
4.89878e-08
4.24412e-06
4.9439e-08
5.08032e-08
4.246e-06
4.5107e-06
1.48192e-08
4.51686e-06
4.34448e-08
4.52208e-06
5.58649e-08
4.52685e-06
6.07982e-08
4.53151e-06
6.39213e-08
4.53569e-06
6.47573e-08
4.53928e-06
6.36754e-08
4.54233e-06
6.17084e-08
4.54491e-06
5.94311e-08
4.54709e-06
5.70602e-08
4.54891e-06
5.47275e-08
4.55042e-06
5.25729e-08
4.55168e-06
5.06886e-08
4.55276e-06
4.92014e-08
4.55377e-06
4.81678e-08
4.555e-06
4.77546e-08
4.55667e-06
4.77626e-08
4.80119e-08
4.55946e-06
4.83432e-06
1.32161e-08
4.8396e-06
3.81629e-08
4.8447e-06
5.07675e-08
4.84936e-06
5.61341e-08
4.85393e-06
5.93413e-08
4.85818e-06
6.05083e-08
4.86196e-06
5.9889e-08
4.86532e-06
5.83497e-08
4.8683e-06
5.64455e-08
4.87096e-06
5.44039e-08
4.87332e-06
5.23631e-08
4.87544e-06
5.04513e-08
4.87736e-06
4.87607e-08
4.87918e-06
4.73807e-08
4.881e-06
4.63485e-08
4.88304e-06
4.57084e-08
4.88551e-06
4.52904e-08
4.48059e-08
4.88872e-06
5.18104e-06
1.1757e-08
5.18573e-06
3.34728e-08
5.1907e-06
4.57931e-08
5.19531e-06
5.1523e-08
5.19984e-06
5.48091e-08
5.20413e-06
5.62173e-08
5.20803e-06
5.59773e-08
5.21158e-06
5.48014e-08
5.21481e-06
5.3214e-08
5.21776e-06
5.14519e-08
5.22046e-06
4.96554e-08
5.22297e-06
4.79417e-08
5.22533e-06
4.63958e-08
5.22763e-06
4.50784e-08
5.22997e-06
4.40048e-08
5.23252e-06
4.31557e-08
5.23543e-06
4.23811e-08
4.14167e-08
5.23882e-06
5.55268e-06
1.04091e-08
5.55686e-06
2.92913e-08
5.56164e-06
4.10126e-08
5.56621e-06
4.69535e-08
5.57072e-06
5.02967e-08
5.57505e-06
5.18778e-08
5.57908e-06
5.19524e-08
5.58278e-06
5.10956e-08
5.5862e-06
4.9788e-08
5.58938e-06
4.82716e-08
5.59235e-06
4.66858e-08
5.59515e-06
4.51377e-08
5.59784e-06
4.37019e-08
5.6005e-06
4.24193e-08
5.60321e-06
4.12885e-08
5.6061e-06
4.02636e-08
5.60926e-06
3.92185e-08
3.79497e-08
5.61272e-06
5.95103e-06
9.15333e-09
5.95476e-06
2.55586e-08
5.95931e-06
3.64653e-08
5.96382e-06
4.24357e-08
5.96832e-06
4.57987e-08
5.9727e-06
4.74942e-08
5.97683e-06
4.78216e-08
5.98067e-06
4.7243e-08
5.98428e-06
4.61844e-08
5.98766e-06
4.48867e-08
5.99085e-06
4.34862e-08
5.99391e-06
4.20803e-08
5.99688e-06
4.0733e-08
5.99982e-06
3.94727e-08
6.00282e-06
3.82888e-08
6.00595e-06
3.71309e-08
6.00926e-06
3.58999e-08
3.44561e-08
6.01275e-06
6.37798e-06
7.98912e-09
6.38132e-06
2.22082e-08
6.38563e-06
3.21598e-08
6.39007e-06
3.79839e-08
6.39455e-06
4.13185e-08
6.39897e-06
4.30758e-08
6.40319e-06
4.35943e-08
6.40718e-06
4.32503e-08
6.41095e-06
4.24111e-08
6.41453e-06
4.13076e-08
6.41794e-06
4.00717e-08
6.42122e-06
3.87909e-08
6.42443e-06
3.75206e-08
6.42762e-06
3.62818e-08
6.43085e-06
3.50625e-08
6.43416e-06
3.38187e-08
6.43758e-06
3.24793e-08
3.09553e-08
6.44107e-06
5.74175e-06
7.06886e-09
5.74432e-06
1.96348e-08
5.74777e-06
2.87076e-08
5.75147e-06
3.42812e-08
5.75524e-06
3.75481e-08
5.75899e-06
3.93217e-08
5.76263e-06
3.99542e-08
5.7661e-06
3.97723e-08
5.76942e-06
3.90953e-08
5.77258e-06
3.81383e-08
5.77563e-06
3.70275e-08
5.77857e-06
3.58435e-08
5.78145e-06
3.46347e-08
5.78431e-06
3.34205e-08
5.78718e-06
3.21901e-08
5.79009e-06
3.09103e-08
5.79304e-06
2.95293e-08
2.79951e-08
5.79599e-06
6.99913e-06
6.09241e-09
7.00185e-06
1.69092e-08
7.0056e-06
2.49589e-08
7.00974e-06
3.01376e-08
7.01403e-06
3.3257e-08
7.01835e-06
3.50008e-08
7.02258e-06
3.57146e-08
7.02667e-06
3.56781e-08
7.03061e-06
3.51583e-08
7.03439e-06
3.43491e-08
7.03805e-06
3.33677e-08
7.04161e-06
3.2287e-08
7.04509e-06
3.11503e-08
7.04853e-06
2.99755e-08
7.05196e-06
2.87579e-08
7.05539e-06
2.74757e-08
7.05882e-06
2.60988e-08
2.46001e-08
7.06221e-06
8.53187e-06
5.06618e-09
8.53472e-06
1.40578e-08
8.53874e-06
2.0939e-08
8.54332e-06
2.55563e-08
8.54815e-06
2.84224e-08
8.55308e-06
3.00688e-08
8.55797e-06
3.08138e-08
8.56276e-06
3.08896e-08
8.5674e-06
3.0512e-08
8.5719e-06
2.9845e-08
8.57627e-06
2.89956e-08
8.58053e-06
2.80266e-08
8.5847e-06
2.69782e-08
8.58881e-06
2.58676e-08
8.59286e-06
2.4698e-08
8.59688e-06
2.34597e-08
8.60083e-06
2.21402e-08
2.0731e-08
8.6047e-06
1.04003e-05
3.99846e-09
1.04032e-05
1.10988e-08
1.04075e-05
1.66665e-08
1.04125e-05
2.05422e-08
1.04179e-05
2.30208e-08
1.04235e-05
2.44819e-08
1.04291e-05
2.51873e-08
1.04347e-05
2.53271e-08
1.04401e-05
2.50632e-08
1.04454e-05
2.45284e-08
1.04506e-05
2.38103e-08
1.04557e-05
2.29665e-08
1.04606e-05
2.20288e-08
1.04655e-05
2.10186e-08
1.04702e-05
1.99427e-08
1.04749e-05
1.88041e-08
1.04794e-05
1.76014e-08
1.63385e-08
1.04838e-05
1.26779e-05
2.8923e-09
1.2681e-05
8.02496e-09
1.26855e-05
1.21362e-08
1.26909e-05
1.50828e-08
1.26969e-05
1.70182e-08
1.27032e-05
1.81809e-08
1.27097e-05
1.87623e-08
1.27161e-05
1.89017e-08
1.27224e-05
1.87148e-08
1.27287e-05
1.8295e-08
1.27348e-05
1.77116e-08
1.27407e-05
1.70083e-08
1.27465e-05
1.62148e-08
1.27522e-05
1.53483e-08
1.27577e-05
1.44221e-08
1.27631e-05
1.34433e-08
1.27682e-05
1.24204e-08
1.13591e-08
1.27732e-05
1.54543e-05
1.73563e-09
1.54576e-05
4.78775e-09
1.54624e-05
7.28638e-09
1.54684e-05
9.1133e-09
1.54751e-05
1.03329e-08
1.54822e-05
1.10686e-08
1.54895e-05
1.14299e-08
1.54969e-05
1.15005e-08
1.55043e-05
1.13484e-08
1.55115e-05
1.10294e-08
1.55186e-05
1.05863e-08
1.55256e-05
1.00495e-08
1.55324e-05
9.43929e-09
1.55389e-05
8.77032e-09
1.55453e-05
8.0539e-09
1.55515e-05
7.3002e-09
1.55574e-05
6.51871e-09
5.71642e-09
1.5563e-05
1.88389e-05
4.8665e-10
1.88424e-05
1.26184e-09
1.88477e-05
1.94115e-09
1.88544e-05
2.43903e-09
1.8862e-05
2.76338e-09
1.88701e-05
2.94025e-09
1.88785e-05
2.99044e-09
1.88871e-05
2.93337e-09
1.88957e-05
2.78679e-09
1.89041e-05
2.56664e-09
1.89124e-05
2.285e-09
1.89205e-05
1.95271e-09
1.89284e-05
1.57766e-09
1.8936e-05
1.16716e-09
1.89433e-05
7.27438e-10
1.89503e-05
2.65636e-10
1.89571e-05
-2.10677e-10
-6.97582e-10
1.89635e-05
2.29648e-05
-9.58415e-10
2.29689e-05
-2.84095e-09
2.29751e-05
-4.3173e-09
2.2983e-05
-5.41495e-09
2.29919e-05
-6.1644e-09
2.30015e-05
-6.65637e-09
2.30115e-05
-6.97599e-09
2.30216e-05
-7.18184e-09
2.30317e-05
-7.30856e-09
2.30416e-05
-7.39192e-09
2.30514e-05
-7.45431e-09
2.30608e-05
-7.5145e-09
2.307e-05
-7.57792e-09
2.30788e-05
-7.65144e-09
2.30872e-05
-7.73412e-09
2.30953e-05
-7.82837e-09
2.3103e-05
-7.9289e-09
-8.03879e-09
2.31104e-05
1.68118e-05
-2.0942e-09
1.6815e-05
-6.03294e-09
1.68199e-05
-9.187e-09
1.68259e-05
-1.14703e-08
1.68327e-05
-1.29552e-08
1.68399e-05
-1.38678e-08
1.68474e-05
-1.4401e-08
1.68548e-05
-1.46544e-08
1.68622e-05
-1.4713e-08
1.68695e-05
-1.46434e-08
1.68765e-05
-1.45043e-08
1.68833e-05
-1.43254e-08
1.68899e-05
-1.41314e-08
1.68962e-05
-1.39309e-08
1.69022e-05
-1.37359e-08
1.69079e-05
-1.35466e-08
1.69133e-05
-1.33673e-08
-1.31968e-08
1.69185e-05
1.46357e-05
-3.18406e-09
1.46388e-05
-9.13764e-09
1.46435e-05
-1.39331e-08
1.46493e-05
-1.72631e-08
1.46556e-05
-1.93059e-08
1.46623e-05
-2.05145e-08
1.4669e-05
-2.11565e-08
1.46758e-05
-2.13735e-08
1.46823e-05
-2.12928e-08
1.46887e-05
-2.10336e-08
1.46949e-05
-2.06694e-08
1.47008e-05
-2.02478e-08
1.47065e-05
-1.97963e-08
1.47119e-05
-1.93365e-08
1.4717e-05
-1.88797e-08
1.47219e-05
-1.84343e-08
1.47265e-05
-1.80013e-08
-1.75861e-08
1.47309e-05
1.27412e-05
-4.20411e-09
1.27443e-05
-1.2279e-08
1.27491e-05
-1.87905e-08
1.27548e-05
-2.29489e-08
1.27609e-05
-2.53395e-08
1.27671e-05
-2.67365e-08
1.27733e-05
-2.74044e-08
1.27794e-05
-2.74922e-08
1.27853e-05
-2.72079e-08
1.2791e-05
-2.67165e-08
1.27965e-05
-2.61076e-08
1.28016e-05
-2.54342e-08
1.28066e-05
-2.473e-08
1.28113e-05
-2.40225e-08
1.28157e-05
-2.33232e-08
1.28199e-05
-2.2644e-08
1.28239e-05
-2.19841e-08
-2.13494e-08
1.28277e-05
1.10918e-05
-5.05683e-09
1.1095e-05
-1.5512e-08
1.11002e-05
-2.39382e-08
1.11058e-05
-2.86068e-08
1.11116e-05
-3.11177e-08
1.11174e-05
-3.2602e-08
1.11232e-05
-3.31918e-08
1.11288e-05
-3.30696e-08
1.11341e-05
-3.25372e-08
1.11392e-05
-3.17919e-08
1.1144e-05
-3.09271e-08
1.11486e-05
-2.99977e-08
1.11529e-05
-2.9048e-08
1.1157e-05
-2.81025e-08
1.11608e-05
-2.71807e-08
1.11645e-05
-2.62856e-08
1.11679e-05
-2.54234e-08
-2.4593e-08
1.11712e-05
9.65583e-06
-5.67168e-09
9.65926e-06
-1.89449e-08
9.66462e-06
-2.93017e-08
9.67014e-06
-3.41314e-08
9.67573e-06
-3.67117e-08
9.68133e-06
-3.82028e-08
9.68671e-06
-3.85716e-08
9.69178e-06
-3.81485e-08
9.69658e-06
-3.73357e-08
9.70111e-06
-3.63276e-08
9.70539e-06
-3.52037e-08
9.70941e-06
-3.40227e-08
9.71319e-06
-3.28311e-08
9.71675e-06
-3.16597e-08
9.72009e-06
-3.05217e-08
9.72323e-06
-2.94253e-08
9.72617e-06
-2.83705e-08
-2.73557e-08
9.72893e-06
8.40533e-06
-5.64877e-09
8.40965e-06
-2.32678e-08
8.4149e-06
-3.45521e-08
8.41994e-06
-3.91818e-08
8.42534e-06
-4.21071e-08
8.43078e-06
-4.36457e-08
8.4359e-06
-4.36958e-08
8.44064e-06
-4.28956e-08
8.44505e-06
-4.17472e-08
8.44915e-06
-4.04273e-08
8.45295e-06
-3.90055e-08
8.45647e-06
-3.75436e-08
8.45973e-06
-3.60904e-08
8.46274e-06
-3.46743e-08
8.46553e-06
-3.33101e-08
8.4681e-06
-3.20038e-08
8.47049e-06
-3.07556e-08
-2.95657e-08
8.47269e-06
7.31455e-06
-2.9164e-09
7.3212e-06
-2.9918e-08
7.32676e-06
-4.01169e-08
7.33173e-06
-4.41528e-08
7.33715e-06
-4.75283e-08
7.3425e-06
-4.89949e-08
7.3474e-06
-4.86052e-08
7.35185e-06
-4.73419e-08
7.35586e-06
-4.57592e-08
7.35944e-06
-4.40164e-08
7.36263e-06
-4.21948e-08
7.36545e-06
-4.03638e-08
7.36794e-06
-3.85789e-08
7.37012e-06
-3.6863e-08
7.37204e-06
-3.52309e-08
7.37372e-06
-3.36857e-08
7.37519e-06
-3.22265e-08
-3.08459e-08
7.37647e-06
6.36245e-06
4.69474e-09
6.3719e-06
-3.93657e-08
6.37934e-06
-4.75556e-08
6.38599e-06
-5.0809e-08
6.39229e-06
-5.38302e-08
6.39762e-06
-5.43306e-08
6.40194e-06
-5.29251e-08
6.40545e-06
-5.08491e-08
6.40827e-06
-4.85861e-08
6.41048e-06
-4.62285e-08
6.41214e-06
-4.3851e-08
6.4133e-06
-4.15339e-08
6.41405e-06
-3.93256e-08
6.41443e-06
-3.72449e-08
6.4145e-06
-3.5305e-08
6.41431e-06
-3.35022e-08
6.41392e-06
-3.18374e-08
-3.02885e-08
6.41337e-06
5.54121e-06
8.95362e-09
5.55033e-06
-4.8494e-08
5.55836e-06
-5.5582e-08
5.56607e-06
-5.85234e-08
5.57254e-06
-6.03072e-08
5.57688e-06
-5.86734e-08
5.57914e-06
-5.51865e-08
5.57972e-06
-5.14293e-08
5.57898e-06
-4.78541e-08
5.57722e-06
-4.44636e-08
5.57464e-06
-4.12774e-08
5.57145e-06
-3.83383e-08
5.56777e-06
-3.56541e-08
5.56374e-06
-3.3216e-08
5.55945e-06
-3.10208e-08
5.555e-06
-2.90522e-08
5.55047e-06
-2.73095e-08
-2.57459e-08
5.54593e-06
4.86004e-06
-2.34837e-08
4.86539e-06
-5.38394e-08
4.86524e-06
-5.54412e-08
4.86218e-06
-5.54616e-08
4.85702e-06
-5.51481e-08
4.84953e-06
-5.11865e-08
4.83984e-06
-4.55059e-08
4.82846e-06
-4.00534e-08
4.81591e-06
-3.52989e-08
4.80264e-06
-3.12033e-08
4.78906e-06
-2.76977e-08
4.77544e-06
-2.47193e-08
4.76197e-06
-2.21876e-08
4.74878e-06
-2.00326e-08
4.73597e-06
-1.82076e-08
4.72359e-06
-1.66792e-08
4.71177e-06
-1.54848e-08
-1.51446e-08
4.70117e-06
4.17919e-06
4.12535e-06
4.06991e-06
4.01445e-06
3.9593e-06
3.90811e-06
3.86261e-06
3.82255e-06
3.78726e-06
3.75605e-06
3.72835e-06
3.70363e-06
3.68145e-06
3.66141e-06
3.6432e-06
3.62652e-06
3.61104e-06
3.59589e-06
2.06339e-08
-2.07531e-08
4.46395e-08
-2.41119e-08
6.40891e-08
-1.95668e-08
7.77817e-08
-1.37585e-08
8.50934e-08
-7.41119e-09
8.61106e-08
-1.07264e-09
8.11835e-08
4.83286e-09
7.11412e-08
9.99223e-09
5.67818e-08
1.4271e-08
3.89909e-08
1.77424e-08
1.80696e-08
2.08232e-08
-5.9895e-09
2.39892e-08
-3.06761e-08
2.44916e-08
-5.30058e-08
2.22187e-08
-7.644e-08
2.32228e-08
-1.02031e-07
2.55101e-08
-1.3082e-07
2.85853e-08
-1.63708e-07
3.28257e-08
-2.02598e-07
3.87048e-08
-2.49093e-07
4.64556e-08
-3.02666e-07
5.34064e-08
-3.58795e-07
5.61118e-08
-4.16558e-07
5.762e-08
-4.77651e-07
6.10862e-08
-5.41249e-07
6.34652e-08
-6.06735e-07
6.54744e-08
-6.74062e-07
6.71858e-08
-7.42555e-07
6.84734e-08
-8.1194e-07
6.92449e-08
-8.8146e-07
6.9491e-08
-9.50837e-07
6.92274e-08
-1.01939e-06
6.85149e-08
-1.08694e-06
6.74036e-08
-1.15297e-06
6.59704e-08
-1.2174e-06
6.42725e-08
-1.27984e-06
6.23882e-08
-1.34036e-06
6.03671e-08
-1.39869e-06
5.82759e-08
-1.45498e-06
5.61478e-08
-1.50905e-06
5.40335e-08
-1.56113e-06
5.19494e-08
-1.61109e-06
4.9931e-08
-1.65919e-06
4.7981e-08
-1.70535e-06
4.61242e-08
-1.74981e-06
4.43527e-08
-1.79253e-06
4.26833e-08
-1.83375e-06
4.11012e-08
-1.8734e-06
3.96191e-08
-1.91173e-06
3.82195e-08
-1.94868e-06
3.69133e-08
-1.98446e-06
3.56798e-08
-2.01903e-06
3.45296e-08
-2.05257e-06
3.34427e-08
-2.08505e-06
3.24291e-08
-2.11664e-06
3.14692e-08
-2.14728e-06
3.05753e-08
-2.17713e-06
2.97293e-08
-2.20617e-06
2.89438e-08
-2.23451e-06
2.82017e-08
-2.26213e-06
2.7517e-08
-2.28914e-06
2.68739e-08
-2.31555e-06
2.62858e-08
-2.34144e-06
2.57394e-08
-2.36682e-06
2.52483e-08
-2.39177e-06
2.48001e-08
-2.41632e-06
2.44072e-08
-2.44052e-06
2.40603e-08
-2.46443e-06
2.377e-08
-2.48809e-06
2.35292e-08
-2.51157e-06
2.33455e-08
-2.53489e-06
2.32148e-08
-2.55817e-06
2.31422e-08
-2.58139e-06
2.31261e-08
-2.6047e-06
2.31651e-08
-2.62805e-06
2.32607e-08
-2.65163e-06
2.34067e-08
-2.67535e-06
2.36075e-08
-2.69939e-06
2.38575e-08
-2.72366e-06
2.41608e-08
-2.74836e-06
2.44982e-08
-2.77335e-06
2.48781e-08
-2.79884e-06
2.5282e-08
-2.82465e-06
2.57186e-08
-2.85101e-06
2.61516e-08
-2.8777e-06
2.65942e-08
-2.90491e-06
2.70108e-08
-2.93239e-06
2.7428e-08
-2.96025e-06
2.78101e-08
-2.98831e-06
2.81728e-08
-3.01655e-06
2.84972e-08
-3.04506e-06
2.87132e-08
-3.07371e-06
2.88018e-08
-3.10235e-06
2.87424e-08
-3.13077e-06
2.85283e-08
-3.15883e-06
2.81359e-08
-3.18629e-06
2.75349e-08
-3.21289e-06
2.66424e-08
-3.23799e-06
2.51241e-08
-3.26144e-06
2.34294e-08
-3.2838e-06
2.23013e-08
-3.30412e-06
2.01874e-08
-3.32198e-06
1.76252e-08
-3.33724e-06
1.49389e-08
-3.34926e-06
1.15643e-08
-3.35756e-06
7.83353e-09
-3.3614e-06
3.29548e-09
-3.36111e-06
-7.61006e-10
-3.35712e-06
-4.48493e-09
-3.3492e-06
-8.31916e-09
-3.33715e-06
-1.24546e-08
-3.32019e-06
-1.72538e-08
-3.29858e-06
-2.1921e-08
-3.27241e-06
-2.63676e-08
-3.24102e-06
-3.15981e-08
-3.20405e-06
-3.70596e-08
-3.16162e-06
-4.25448e-08
-3.11348e-06
-4.81369e-08
-3.05983e-06
-5.36266e-08
-3.00027e-06
-5.94105e-08
-2.93489e-06
-6.52629e-08
-2.86388e-06
-7.09319e-08
-2.78715e-06
-7.67868e-08
-2.70469e-06
-8.25039e-08
-2.61662e-06
-8.81292e-08
-2.523e-06
-9.35309e-08
-2.42412e-06
-9.87433e-08
-2.32014e-06
-1.03676e-07
-2.21147e-06
-1.08343e-07
-2.09836e-06
-1.12664e-07
-1.98125e-06
-1.16642e-07
-1.86051e-06
-1.20212e-07
-1.73661e-06
-1.23374e-07
-1.60997e-06
-1.26084e-07
-1.48109e-06
-1.28341e-07
-1.35042e-06
-1.30132e-07
-1.21844e-06
-1.31471e-07
-1.08558e-06
-1.3237e-07
-9.523e-07
-1.3285e-07
-8.18986e-07
-1.32936e-07
-6.86042e-07
-1.32645e-07
-5.538e-07
-1.31998e-07
-4.22671e-07
-1.30967e-07
-2.92724e-07
-1.29835e-07
-1.63428e-07
-1.29255e-07
-3.38053e-08
-1.2962e-07
9.59476e-08
-1.29799e-07
2.23725e-07
-1.27839e-07
3.4794e-07
-1.24302e-07
4.68043e-07
-1.20192e-07
5.8375e-07
-1.1581e-07
6.94954e-07
-1.11303e-07
8.01588e-07
-1.06737e-07
9.0366e-07
-1.02171e-07
1.00122e-06
-9.76599e-08
1.09436e-06
-9.32335e-08
1.18315e-06
-8.88784e-08
1.26772e-06
-8.46539e-08
1.34822e-06
-8.05813e-08
1.42478e-06
-7.66321e-08
1.49751e-06
-7.27989e-08
1.56655e-06
-6.91032e-08
1.63205e-06
-6.55554e-08
1.69415e-06
-6.21597e-08
1.75299e-06
-5.88865e-08
1.80868e-06
-5.57335e-08
1.86134e-06
-5.26949e-08
1.91106e-06
-4.97703e-08
1.95797e-06
-4.6936e-08
2.00212e-06
-4.4187e-08
2.04359e-06
-4.14872e-08
2.08235e-06
-3.87929e-08
2.11836e-06
-3.60301e-08
2.15142e-06
-3.30971e-08
2.18121e-06
-2.98084e-08
2.20699e-06
-2.58226e-08
2.22748e-06
-2.05125e-08
2.23886e-06
-1.14198e-08
2.23183e-06
6.9903e-09
2.18446e-06
4.73431e-08
1.16049e-07
2.06839e-06
2.10765e-08
-4.19275e-08
3.4567e-08
-3.7681e-08
4.12029e-08
-2.62696e-08
4.28974e-08
-1.54948e-08
4.04555e-08
-5.02199e-09
3.42532e-08
5.0938e-09
2.43762e-08
1.4659e-08
1.08144e-08
2.35195e-08
-6.59378e-09
3.16282e-08
-2.80046e-08
3.91165e-08
-5.35017e-08
4.62645e-08
-8.27887e-08
5.32312e-08
-1.17695e-07
5.93305e-08
-1.59308e-07
6.3784e-08
-2.04724e-07
6.85696e-08
-2.5341e-07
7.41542e-08
-3.05582e-07
8.06889e-08
-3.60996e-07
8.82012e-08
-4.18951e-07
9.65979e-08
-4.77972e-07
1.05448e-07
-5.3814e-07
1.13522e-07
-6.01529e-07
1.19476e-07
-6.6776e-07
1.23805e-07
-7.34374e-07
1.27682e-07
-8.018e-07
1.30845e-07
-8.69374e-07
1.33023e-07
-9.36519e-07
1.34281e-07
-1.00272e-06
1.34647e-07
-1.06768e-06
1.34149e-07
-1.13107e-06
1.3285e-07
-1.19273e-06
1.30838e-07
-1.25248e-06
1.28223e-07
-1.31025e-06
1.25119e-07
-1.36596e-06
1.21639e-07
-1.41963e-06
1.17887e-07
-1.47125e-06
1.13963e-07
-1.5209e-06
1.09951e-07
-1.56859e-06
1.05927e-07
-1.61444e-06
1.01947e-07
-1.6585e-06
9.80593e-08
-1.7009e-06
9.42964e-08
-1.74168e-06
9.06845e-08
-1.78099e-06
8.72365e-08
-1.81886e-06
8.39634e-08
-1.85542e-06
8.08657e-08
-1.89071e-06
7.79452e-08
-1.92486e-06
7.51947e-08
-1.95788e-06
7.26113e-08
-1.98989e-06
7.01842e-08
-2.02093e-06
6.79086e-08
-2.05106e-06
6.5772e-08
-2.08034e-06
6.37689e-08
-2.10883e-06
6.18873e-08
-2.13657e-06
6.01237e-08
-2.16362e-06
5.84672e-08
-2.19001e-06
5.69162e-08
-2.21581e-06
5.54617e-08
-2.24103e-06
5.41047e-08
-2.26573e-06
5.28377e-08
-2.28995e-06
5.16629e-08
-2.31372e-06
5.05746e-08
-2.33709e-06
4.9577e-08
-2.36009e-06
4.86659e-08
-2.38277e-06
4.78461e-08
-2.40516e-06
4.71144e-08
-2.42731e-06
4.64764e-08
-2.44926e-06
4.59293e-08
-2.47105e-06
4.54791e-08
-2.49272e-06
4.51232e-08
-2.51432e-06
4.48664e-08
-2.53588e-06
4.47064e-08
-2.55745e-06
4.46453e-08
-2.57907e-06
4.46801e-08
-2.60079e-06
4.48105e-08
-2.62263e-06
4.50301e-08
-2.64464e-06
4.53354e-08
-2.66684e-06
4.57235e-08
-2.68926e-06
4.61872e-08
-2.71189e-06
4.67172e-08
-2.73479e-06
4.72994e-08
-2.75792e-06
4.79249e-08
-2.78131e-06
4.85754e-08
-2.80491e-06
4.92359e-08
-2.82874e-06
4.98787e-08
-2.85272e-06
5.04898e-08
-2.87684e-06
5.1041e-08
-2.90099e-06
5.15211e-08
-2.92511e-06
5.18999e-08
-2.94902e-06
5.21702e-08
-2.97266e-06
5.22685e-08
-2.99597e-06
5.21458e-08
-3.01883e-06
5.17517e-08
-3.04108e-06
5.10453e-08
-3.06251e-06
5.00096e-08
-3.08293e-06
4.85918e-08
-3.10211e-06
4.67542e-08
-3.11988e-06
4.44184e-08
-3.13628e-06
4.15315e-08
-3.15113e-06
3.82425e-08
-3.16363e-06
3.47404e-08
-3.17414e-06
3.0581e-08
-3.18247e-06
2.57862e-08
-3.1883e-06
2.05024e-08
-3.1917e-06
1.46567e-08
-3.19253e-06
8.30352e-09
-3.19103e-06
1.44932e-09
-3.18646e-06
-5.68233e-09
-3.1781e-06
-1.31395e-08
-3.16566e-06
-2.10492e-08
-3.14884e-06
-2.95081e-08
-3.1278e-06
-3.85213e-08
-3.10199e-06
-4.79043e-08
-3.07086e-06
-5.76644e-08
-3.03463e-06
-6.79237e-08
-2.99321e-06
-7.85754e-08
-2.94621e-06
-8.95797e-08
-2.89357e-06
-1.00801e-07
-2.83498e-06
-1.12167e-07
-2.7706e-06
-1.23706e-07
-2.70041e-06
-1.35369e-07
-2.62427e-06
-1.47052e-07
-2.54234e-06
-1.58753e-07
-2.45458e-06
-1.70326e-07
-2.36106e-06
-1.81675e-07
-2.26191e-06
-1.92647e-07
-2.15736e-06
-2.03198e-07
-2.04766e-06
-2.1322e-07
-1.93313e-06
-2.2266e-07
-1.81413e-06
-2.31416e-07
-1.69107e-06
-2.39433e-07
-1.56437e-06
-2.46624e-07
-1.4345e-06
-2.52947e-07
-1.30193e-06
-2.58344e-07
-1.16719e-06
-2.62797e-07
-1.03075e-06
-2.66289e-07
-8.9312e-07
-2.68839e-07
-7.54782e-07
-2.70466e-07
-6.16209e-07
-2.71217e-07
-4.77826e-07
-2.71145e-07
-3.40031e-07
-2.70311e-07
-2.03016e-07
-2.68913e-07
-6.67444e-08
-2.6718e-07
6.84643e-08
-2.65007e-07
2.01499e-07
-2.6229e-07
3.3079e-07
-2.58921e-07
4.55455e-07
-2.54502e-07
5.76155e-07
-2.48577e-07
6.93285e-07
-2.41489e-07
8.0673e-07
-2.33691e-07
9.16335e-07
-2.25482e-07
1.022e-06
-2.17028e-07
1.12365e-06
-2.08462e-07
1.22129e-06
-1.99866e-07
1.3149e-06
-1.91341e-07
1.40453e-06
-1.8293e-07
1.49026e-06
-1.74666e-07
1.57214e-06
-1.66592e-07
1.65025e-06
-1.58755e-07
1.72471e-06
-1.51138e-07
1.79562e-06
-1.43762e-07
1.86311e-06
-1.36635e-07
1.92729e-06
-1.2978e-07
1.98828e-06
-1.23189e-07
2.04619e-06
-1.16839e-07
2.10114e-06
-1.10711e-07
2.15322e-06
-1.04809e-07
2.20253e-06
-9.91117e-08
2.24917e-06
-9.35952e-08
2.29319e-06
-8.82301e-08
2.33464e-06
-8.29597e-08
2.37352e-06
-7.76896e-08
2.40976e-06
-7.22897e-08
2.44319e-06
-6.65511e-08
2.47351e-06
-6.01426e-08
2.50011e-06
-5.245e-08
2.52197e-06
-4.23901e-08
2.53787e-06
-2.73412e-08
2.54725e-06
-2.42048e-09
2.5487e-06
4.58717e-08
1.37777e-07
2.52697e-06
9.19573e-09
-5.12027e-08
1.00686e-08
-3.86123e-08
6.51767e-09
-2.27674e-08
-6.18698e-10
-8.3882e-09
-1.09162e-08
5.23877e-09
-2.41866e-08
1.83392e-08
-4.05001e-08
3.09392e-08
-6.00402e-08
4.3036e-08
-8.3102e-08
5.46574e-08
-1.099e-07
6.5891e-08
-1.40513e-07
7.68448e-08
-1.74825e-07
8.75188e-08
-2.13175e-07
9.76478e-08
-2.56367e-07
1.06952e-07
-3.03782e-07
1.15953e-07
-3.54703e-07
1.25054e-07
-4.08452e-07
1.34405e-07
-4.64193e-07
1.43922e-07
-5.21002e-07
1.53375e-07
-5.77958e-07
1.62385e-07
-6.34917e-07
1.70451e-07
-6.9261e-07
1.77152e-07
-7.51343e-07
1.82508e-07
-8.1024e-07
1.86561e-07
-8.68774e-07
1.89348e-07
-9.26655e-07
1.90885e-07
-9.83631e-07
1.91223e-07
-1.03945e-06
1.9044e-07
-1.09397e-06
1.88642e-07
-1.14709e-06
1.85949e-07
-1.19878e-06
1.82488e-07
-1.24897e-06
1.78394e-07
-1.29769e-06
1.73802e-07
-1.34491e-06
1.68839e-07
-1.39068e-06
1.63622e-07
-1.435e-06
1.58258e-07
-1.47792e-06
1.52837e-07
-1.51946e-06
1.47438e-07
-1.55966e-06
1.42122e-07
-1.59857e-06
1.3694e-07
-1.63622e-06
1.31926e-07
-1.67267e-06
1.27107e-07
-1.70796e-06
1.22499e-07
-1.74213e-06
1.18111e-07
-1.77524e-06
1.13947e-07
-1.80732e-06
1.10005e-07
-1.83844e-06
1.06282e-07
-1.86862e-06
1.0277e-07
-1.89793e-06
9.94609e-08
-1.92639e-06
9.63455e-08
-1.95406e-06
9.34131e-08
-1.98097e-06
9.06542e-08
-2.00718e-06
8.80586e-08
-2.0327e-06
8.56181e-08
-2.0576e-06
8.33241e-08
-2.08189e-06
8.11705e-08
-2.10562e-06
7.9151e-08
-2.12882e-06
7.72619e-08
-2.15152e-06
7.54989e-08
-2.17376e-06
7.38607e-08
-2.19558e-06
7.23449e-08
-2.217e-06
7.09521e-08
-2.23807e-06
6.96819e-08
-2.25881e-06
6.85364e-08
-2.27926e-06
6.75161e-08
-2.29946e-06
6.66235e-08
-2.31944e-06
6.586e-08
-2.33924e-06
6.52284e-08
-2.3589e-06
6.47296e-08
-2.37844e-06
6.43653e-08
-2.39792e-06
6.41351e-08
-2.41736e-06
6.40393e-08
-2.4368e-06
6.40751e-08
-2.45627e-06
6.42383e-08
-2.47581e-06
6.45235e-08
-2.49545e-06
6.49239e-08
-2.51521e-06
6.54311e-08
-2.53511e-06
6.60347e-08
-2.55517e-06
6.67199e-08
-2.5754e-06
6.74692e-08
-2.59579e-06
6.82644e-08
-2.61635e-06
6.90823e-08
-2.63707e-06
6.98966e-08
-2.65793e-06
7.06767e-08
-2.67889e-06
7.1394e-08
-2.69992e-06
7.20135e-08
-2.72095e-06
7.25046e-08
-2.7419e-06
7.28336e-08
-2.76265e-06
7.29583e-08
-2.78312e-06
7.28328e-08
-2.80328e-06
7.23795e-08
-2.82304e-06
7.15388e-08
-2.84223e-06
7.02709e-08
-2.86073e-06
6.85193e-08
-2.87836e-06
6.62462e-08
-2.895e-06
6.33866e-08
-2.91049e-06
5.99009e-08
-2.92473e-06
5.57467e-08
-2.93749e-06
5.097e-08
-2.94843e-06
4.56063e-08
-2.9575e-06
3.95389e-08
-2.96456e-06
3.26892e-08
-2.96938e-06
2.50992e-08
-2.97174e-06
1.67811e-08
-2.97144e-06
7.72089e-09
-2.96819e-06
-2.04772e-09
-2.96162e-06
-1.25147e-08
-2.95131e-06
-2.36525e-08
-2.93704e-06
-3.55344e-08
-2.91854e-06
-4.81704e-08
-2.89568e-06
-6.15459e-08
-2.86808e-06
-7.56214e-08
-2.83547e-06
-9.0394e-08
-2.79773e-06
-1.05731e-07
-2.75475e-06
-1.21623e-07
-2.70631e-06
-1.38046e-07
-2.65226e-06
-1.54858e-07
-2.59242e-06
-1.71961e-07
-2.52677e-06
-1.89296e-07
-2.45527e-06
-2.06809e-07
-2.37792e-06
-2.24407e-07
-2.29475e-06
-2.41952e-07
-2.20581e-06
-2.59326e-07
-2.11115e-06
-2.76345e-07
-2.01094e-06
-2.9284e-07
-1.90538e-06
-3.08675e-07
-1.79477e-06
-3.23724e-07
-1.67943e-06
-3.37857e-07
-1.55972e-06
-3.50952e-07
-1.43607e-06
-3.6289e-07
-1.30893e-06
-3.73567e-07
-1.17877e-06
-3.82896e-07
-1.0461e-06
-3.90809e-07
-9.11429e-07
-3.97267e-07
-7.75272e-07
-4.02256e-07
-6.38137e-07
-4.05796e-07
-5.00518e-07
-4.07927e-07
-3.62886e-07
-4.08709e-07
-2.25654e-07
-4.08265e-07
-8.90979e-08
-4.0677e-07
4.63761e-08
-4.04312e-07
1.80065e-07
-4.00801e-07
3.11265e-07
-3.96157e-07
4.39422e-07
-3.90402e-07
5.64012e-07
-3.83482e-07
6.8475e-07
-3.75211e-07
8.01748e-07
-3.65559e-07
9.15075e-07
-3.54797e-07
1.02465e-06
-3.43261e-07
1.1304e-06
-3.31216e-07
1.23224e-06
-3.18866e-07
1.33015e-06
-3.06363e-07
1.42412e-06
-2.93832e-07
1.51417e-06
-2.81384e-07
1.60034e-06
-2.69101e-07
1.68271e-06
-2.57029e-07
1.76134e-06
-2.45222e-07
1.83632e-06
-2.33738e-07
1.90778e-06
-2.226e-07
1.97584e-06
-2.11818e-07
2.04061e-06
-2.01403e-07
2.1022e-06
-1.91368e-07
2.16072e-06
-1.81714e-07
2.2163e-06
-1.72414e-07
2.26904e-06
-1.6345e-07
2.31904e-06
-1.54809e-07
2.3664e-06
-1.46468e-07
2.4112e-06
-1.38392e-07
2.45351e-06
-1.30538e-07
2.49337e-06
-1.22815e-07
2.53077e-06
-1.15097e-07
2.56568e-06
-1.07193e-07
2.59794e-06
-9.88141e-08
2.6273e-06
-8.95042e-08
2.65331e-06
-7.84727e-08
2.67528e-06
-6.43586e-08
2.69232e-06
-4.43908e-08
2.70376e-06
-1.38696e-08
2.71149e-06
3.81348e-08
1.30397e-07
2.71887e-06
-4.58436e-09
-4.66878e-08
-1.46495e-08
-2.85935e-08
-2.69173e-08
-1.05374e-08
-4.14022e-08
6.07341e-09
-5.81116e-08
2.19209e-08
-7.71045e-08
3.73138e-08
-9.8553e-08
5.2363e-08
-1.2264e-07
6.71066e-08
-1.4957e-07
8.15641e-08
-1.79447e-07
9.57515e-08
-2.12291e-07
1.09666e-07
-2.48035e-07
1.23247e-07
-2.86773e-07
1.36364e-07
-3.28733e-07
1.48897e-07
-3.73725e-07
1.60923e-07
-4.21229e-07
1.72544e-07
-4.70626e-07
1.83779e-07
-5.21247e-07
1.94528e-07
-5.72497e-07
2.04603e-07
-6.23881e-07
2.13755e-07
-6.75171e-07
2.21718e-07
-7.26324e-07
2.28292e-07
-7.77264e-07
2.33424e-07
-8.27814e-07
2.37095e-07
-8.77806e-07
2.39314e-07
-9.27068e-07
2.4013e-07
-9.75497e-07
2.39625e-07
-1.02299e-06
2.37912e-07
-1.0695e-06
2.35124e-07
-1.11497e-06
2.31404e-07
-1.15941e-06
2.26896e-07
-1.20277e-06
2.21744e-07
-1.24508e-06
2.16088e-07
-1.28632e-06
2.10058e-07
-1.3265e-06
2.03777e-07
-1.36561e-06
1.97353e-07
-1.40368e-06
1.90879e-07
-1.44069e-06
1.84434e-07
-1.47667e-06
1.78084e-07
-1.51163e-06
1.71879e-07
-1.54558e-06
1.65858e-07
-1.57854e-06
1.6005e-07
-1.61054e-06
1.54475e-07
-1.64159e-06
1.49145e-07
-1.67173e-06
1.44064e-07
-1.70097e-06
1.39235e-07
-1.72937e-06
1.34654e-07
-1.75693e-06
1.30315e-07
-1.78371e-06
1.2621e-07
-1.80971e-06
1.22331e-07
-1.83499e-06
1.18667e-07
-1.85957e-06
1.15208e-07
-1.88348e-06
1.11945e-07
-1.90676e-06
1.08868e-07
-1.92944e-06
1.05968e-07
-1.95153e-06
1.03239e-07
-1.97309e-06
1.00674e-07
-1.99413e-06
9.8269e-08
-2.01468e-06
9.60204e-08
-2.03478e-06
9.39257e-08
-2.05446e-06
9.19838e-08
-2.07373e-06
9.01948e-08
-2.09265e-06
8.85596e-08
-2.11123e-06
8.70796e-08
-2.12951e-06
8.57572e-08
-2.14752e-06
8.45949e-08
-2.16529e-06
8.35951e-08
-2.18286e-06
8.27605e-08
-2.20026e-06
8.20931e-08
-2.21753e-06
8.15944e-08
-2.23469e-06
8.12646e-08
-2.25179e-06
8.11025e-08
-2.26886e-06
8.11052e-08
-2.28592e-06
8.12683e-08
-2.30302e-06
8.15841e-08
-2.32018e-06
8.20433e-08
-2.33742e-06
8.26351e-08
-2.35477e-06
8.33443e-08
-2.37224e-06
8.41526e-08
-2.38985e-06
8.50378e-08
-2.4076e-06
8.59751e-08
-2.4255e-06
8.6935e-08
-2.44353e-06
8.78841e-08
-2.46168e-06
8.87853e-08
-2.47993e-06
8.95991e-08
-2.49824e-06
9.0283e-08
-2.51657e-06
9.07928e-08
-2.53483e-06
9.10808e-08
-2.55294e-06
9.11019e-08
-2.57083e-06
9.07757e-08
-2.58846e-06
9.00494e-08
-2.60574e-06
8.8838e-08
-2.62255e-06
8.70857e-08
-2.63876e-06
8.47288e-08
-2.65424e-06
8.17126e-08
-2.66883e-06
7.79708e-08
-2.68241e-06
7.34546e-08
-2.69482e-06
6.81192e-08
-2.70587e-06
6.19598e-08
-2.71531e-06
5.49674e-08
-2.72298e-06
4.7084e-08
-2.7287e-06
3.824e-08
-2.73222e-06
2.84205e-08
-2.7333e-06
1.76307e-08
-2.73166e-06
5.84956e-09
-2.72702e-06
-6.90713e-09
-2.71908e-06
-2.06581e-08
-2.70754e-06
-3.53776e-08
-2.69213e-06
-5.1104e-08
-2.67263e-06
-6.78141e-08
-2.64879e-06
-8.5509e-08
-2.62036e-06
-1.04159e-07
-2.58711e-06
-1.23729e-07
-2.54885e-06
-1.44053e-07
-2.50541e-06
-1.65107e-07
-2.45664e-06
-1.86836e-07
-2.40236e-06
-2.09134e-07
-2.34241e-06
-2.31865e-07
-2.27672e-06
-2.54935e-07
-2.20527e-06
-2.78219e-07
-2.12808e-06