/*--------------------------------*- C++ -*----------------------------------*\
  =========                 |
  \\      /  F ield         | OpenFOAM: The Open Source CFD Toolbox
   \\    /   O peration     | Website:  https://openfoam.org
    \\  /    A nd           | Version:  7
     \\/     M anipulation  |
\*---------------------------------------------------------------------------*/
FoamFile
{
    version     2.0;
    format      ascii;
    class       volVectorField;
    location    "100";
    object      U;
}
// * * * * * * * * * * * * * * * * * * * * * * * * * * * * * * * * * * * * * //

dimensions      [0 1 -1 0 0 0 0];

internalField   nonuniform List<vector> 
12225
(
(9.85697 -0.886412 0)
(9.6666 -0.740745 0)
(9.45559 -0.429459 0)
(9.22425 -0.222191 0)
(9.00602 -0.106415 0)
(8.81362 -0.0458097 0)
(8.6463 -0.0151082 0)
(8.50372 0.000553502 0)
(8.38136 0.00851828 0)
(8.27787 0.0124646 0)
(8.18826 0.014249 0)
(8.11066 0.0153873 0)
(8.04165 0.0159607 0)
(7.97962 0.0164668 0)
(7.92105 0.0171971 0)
(7.86794 0.0185563 0)
(7.79328 0.0222903 0)
(7.78394 0.0321281 0)
(10.0545 0.227556 0)
(10.121 0.326934 0)
(10.1196 0.261591 0)
(10.0855 0.186587 0)
(10.0432 0.13473 0)
(9.99641 0.101208 0)
(9.94355 0.0794248 0)
(9.8845 0.0647477 0)
(9.82286 0.0545135 0)
(9.75985 0.0470227 0)
(9.69787 0.0414092 0)
(9.63724 0.037082 0)
(9.57896 0.0337817 0)
(9.52322 0.0315315 0)
(9.46921 0.0300138 0)
(9.42007 0.0316329 0)
(9.36636 0.0316351 0)
(9.34014 0.0562127 0)
(10.0035 0.0579246 0)
(10.0303 0.0560256 0)
(10.056 0.0338218 0)
(10.0702 0.0329588 0)
(10.0767 0.0407445 0)
(10.0775 0.0466832 0)
(10.072 0.0495504 0)
(10.0606 0.0505675 0)
(10.0451 0.0505664 0)
(10.0262 0.0499951 0)
(10.0052 0.0491595 0)
(9.9822 0.0483086 0)
(9.95808 0.0475949 0)
(9.93313 0.0473314 0)
(9.90725 0.0475178 0)
(9.88174 0.0498574 0)
(9.85499 0.0528157 0)
(9.83353 0.0659508 0)
(9.99778 0.0110644 0)
(10.011 0.0266351 0)
(10.0349 0.0372037 0)
(10.0524 0.0481705 0)
(10.0641 0.055581 0)
(10.073 0.0583664 0)
(10.0789 0.0586082 0)
(10.0816 0.0579631 0)
(10.0817 0.0570485 0)
(10.0797 0.0560416 0)
(10.0761 0.0550416 0)
(10.0711 0.0542164 0)
(10.0648 0.0536295 0)
(10.0577 0.0535656 0)
(10.0494 0.0540909 0)
(10.041 0.0563674 0)
(10.0326 0.0597565 0)
(10.0267 0.06805 0)
(9.99935 0.00721269 0)
(10.009 0.0316923 0)
(10.0274 0.0439933 0)
(10.0417 0.0500363 0)
(10.0525 0.0537786 0)
(10.0625 0.0554699 0)
(10.071 0.0558402 0)
(10.0775 0.0556703 0)
(10.0823 0.0552916 0)
(10.0858 0.0548162 0)
(10.0881 0.0543322 0)
(10.0895 0.0539881 0)
(10.0899 0.0538758 0)
(10.0897 0.0542319 0)
(10.0888 0.0551827 0)
(10.088 0.0574111 0)
(10.0876 0.0606517 0)
(10.0893 0.0659554 0)
(10.0003 0.00919766 0)
(10.0083 0.0312187 0)
(10.0226 0.0410342 0)
(10.0348 0.0455338 0)
(10.0448 0.0492425 0)
(10.0544 0.0516593 0)
(10.0632 0.0527481 0)
(10.0706 0.0531232 0)
(10.0768 0.0531816 0)
(10.082 0.053083 0)
(10.0864 0.0529378 0)
(10.0901 0.0528878 0)
(10.0932 0.0530424 0)
(10.0957 0.0535891 0)
(10.098 0.0546547 0)
(10.1004 0.0566009 0)
(10.1034 0.0592613 0)
(10.108 0.0626645 0)
(10.0004 0.0089688 0)
(10.0071 0.0271453 0)
(10.019 0.0365226 0)
(10.03 0.0415597 0)
(10.0393 0.0456592 0)
(10.0483 0.0484206 0)
(10.0567 0.0498133 0)
(10.0642 0.050445 0)
(10.0707 0.0507357 0)
(10.0765 0.0508538 0)
(10.0817 0.0509108 0)
(10.0863 0.051034 0)
(10.0904 0.0513325 0)
(10.0943 0.0519459 0)
(10.098 0.0529713 0)
(10.1019 0.0545697 0)
(10.1064 0.056585 0)
(10.1122 0.0587237 0)
(10.0004 0.00794477 0)
(10.006 0.0234502 0)
(10.0161 0.0328644 0)
(10.0261 0.0383005 0)
(10.0349 0.042383 0)
(10.0432 0.0451749 0)
(10.0512 0.0467248 0)
(10.0585 0.0475392 0)
(10.065 0.0480004 0)
(10.0709 0.0482753 0)
(10.0764 0.0484736 0)
(10.0814 0.0487085 0)
(10.0861 0.0490797 0)
(10.0905 0.0496857 0)
(10.095 0.0505864 0)
(10.0996 0.0518241 0)
(10.1048 0.0532397 0)
(10.1108 0.0544847 0)
(10.0004 0.00699398 0)
(10.005 0.0205089 0)
(10.0136 0.0296024 0)
(10.0227 0.0350903 0)
(10.031 0.0390392 0)
(10.0388 0.0418219 0)
(10.0464 0.0435074 0)
(10.0534 0.0444785 0)
(10.0598 0.0450743 0)
(10.0657 0.0454659 0)
(10.0712 0.0457616 0)
(10.0764 0.0460618 0)
(10.0813 0.0464513 0)
(10.0861 0.0469966 0)
(10.0909 0.0477241 0)
(10.0959 0.0486133 0)
(10.1013 0.0495106 0)
(10.1073 0.0501147 0)
(10.0004 0.00616796 0)
(10.0043 0.0179537 0)
(10.0116 0.0264434 0)
(10.0198 0.0318388 0)
(10.0275 0.0356719 0)
(10.0348 0.0384307 0)
(10.042 0.0402085 0)
(10.0487 0.0412959 0)
(10.055 0.0419908 0)
(10.0609 0.0424648 0)
(10.0664 0.0428226 0)
(10.0716 0.0431517 0)
(10.0767 0.0435203 0)
(10.0816 0.0439712 0)
(10.0866 0.0445067 0)
(10.0917 0.0450787 0)
(10.0971 0.0455516 0)
(10.1028 0.0456972 0)
(10.0003 0.00541261 0)
(10.0036 0.0156531 0)
(10.0098 0.0234215 0)
(10.0172 0.028628 0)
(10.0243 0.0323287 0)
(10.0313 0.0350206 0)
(10.038 0.0368329 0)
(10.0445 0.0379929 0)
(10.0506 0.0387546 0)
(10.0564 0.0392815 0)
(10.0618 0.0396721 0)
(10.0671 0.040001 0)
(10.0721 0.0403221 0)
(10.0771 0.040661 0)
(10.0821 0.0410068 0)
(10.0872 0.0413042 0)
(10.0925 0.041444 0)
(10.098 0.0412662 0)
(10.0003 0.00475146 0)
(10.0031 0.0137213 0)
(10.0085 0.0207905 0)
(10.0151 0.025739 0)
(10.0218 0.0292808 0)
(10.0283 0.0318742 0)
(10.0348 0.0336735 0)
(10.041 0.0348639 0)
(10.0469 0.0356595 0)
(10.0526 0.0362106 0)
(10.058 0.0366082 0)
(10.0632 0.0369164 0)
(10.0682 0.037178 0)
(10.0732 0.0374089 0)
(10.0782 0.0375928 0)
(10.0832 0.0376791 0)
(10.0883 0.0375835 0)
(10.0935 0.0371994 0)
(10.0003 0.00414092 0)
(10.0027 0.0119568 0)
(10.0074 0.0183015 0)
(10.0134 0.0229146 0)
(10.0196 0.0262612 0)
(10.0257 0.0287281 0)
(10.0318 0.0304786 0)
(10.0378 0.0316676 0)
(10.0436 0.0324723 0)
(10.0491 0.0330266 0)
(10.0544 0.0334136 0)
(10.0595 0.0336876 0)
(10.0646 0.0338826 0)
(10.0695 0.034009 0)
(10.0744 0.0340508 0)
(10.0793 0.0339663 0)
(10.0842 0.0336931 0)
(10.0891 0.0331639 0)
(10.0002 0.00351035 0)
(10.0024 0.0101222 0)
(10.0064 0.0156308 0)
(10.0117 0.019783 0)
(10.0173 0.0228498 0)
(10.0231 0.0251283 0)
(10.0289 0.0267761 0)
(10.0346 0.0279215 0)
(10.0401 0.0287035 0)
(10.0455 0.0292353 0)
(10.0507 0.0295903 0)
(10.0557 0.0298128 0)
(10.0607 0.0299286 0)
(10.0655 0.0299452 0)
(10.0703 0.0298505 0)
(10.075 0.0296152 0)
(10.0797 0.0291987 0)
(10.0843 0.0285628 0)
(10.0002 0.0028551 0)
(10.002 0.00821455 0)
(10.0055 0.0127848 0)
(10.0101 0.016344 0)
(10.0153 0.0190263 0)
(10.0206 0.0210369 0)
(10.026 0.022512 0)
(10.0314 0.0235552 0)
(10.0367 0.0242693 0)
(10.0419 0.0247429 0)
(10.0469 0.0250368 0)
(10.0518 0.0251874 0)
(10.0567 0.0252134 0)
(10.0614 0.0251208 0)
(10.066 0.0249035 0)
(10.0705 0.0245453 0)
(10.0749 0.0240253 0)
(10.0792 0.0233254 0)
(10.0002 0.00217366 0)
(10.0017 0.00623445 0)
(10.0047 0.00976947 0)
(10.0088 0.012599 0)
(10.0134 0.0147735 0)
(10.0183 0.0164182 0)
(10.0233 0.0176347 0)
(10.0284 0.0185012 0)
(10.0335 0.0190887 0)
(10.0384 0.0194594 0)
(10.0433 0.0196593 0)
(10.0481 0.0197168 0)
(10.0527 0.0196464 0)
(10.0572 0.0194533 0)
(10.0616 0.0191364 0)
(10.0659 0.0186903 0)
(10.0701 0.0181089 0)
(10.0741 0.0173866 0)
(10.0002 0.00146206 0)
(10.0015 0.00416641 0)
(10.0041 0.00656595 0)
(10.0077 0.00852639 0)
(10.0118 0.0100566 0)
(10.0164 0.0112203 0)
(10.0211 0.0120792 0)
(10.0258 0.012683 0)
(10.0306 0.0130751 0)
(10.0354 0.0132927 0)
(10.04 0.0133647 0)
(10.0446 0.0133107 0)
(10.049 0.0131415 0)
(10.0534 0.0128616 0)
(10.0576 0.0124728 0)
(10.0616 0.0119762 0)
(10.0655 0.0113739 0)
(10.0692 0.0106663 0)
(10.0001 0.000702919 0)
(10.0013 0.00195735 0)
(10.0036 0.00309974 0)
(10.0069 0.00404304 0)
(10.0108 0.00478069 0)
(10.015 0.00533379 0)
(10.0194 0.00572472 0)
(10.0239 0.00597285 0)
(10.0285 0.00609568 0)
(10.033 0.00610748 0)
(10.0375 0.00601937 0)
(10.0418 0.00583933 0)
(10.0461 0.0055725 0)
(10.0502 0.00522148 0)
(10.0541 0.0047883 0)
(10.058 0.00427558 0)
(10.0616 0.00368815 0)
(10.0651 0.00302719 0)
(10.0001 -0.000148071 0)
(10.0013 -0.000515513 0)
(10.0035 -0.000803963 0)
(10.0066 -0.00104636 0)
(10.0103 -0.00124988 0)
(10.0144 -0.00143074 0)
(10.0187 -0.00160754 0)
(10.0231 -0.00179425 0)
(10.0275 -0.00199984 0)
(10.0319 -0.00223269 0)
(10.0362 -0.00250041 0)
(10.0404 -0.00280898 0)
(10.0444 -0.00316222 0)
(10.0484 -0.00356262 0)
(10.0521 -0.00401144 0)
(10.0557 -0.00450843 0)
(10.0592 -0.00505061 0)
(10.0624 -0.00563963 0)
(10.0001 -0.000964778 0)
(10.0013 -0.00288769 0)
(10.0037 -0.00455758 0)
(10.007 -0.00593198 0)
(10.0109 -0.00701554 0)
(10.0151 -0.0078696 0)
(10.0195 -0.00855695 0)
(10.024 -0.00912082 0)
(10.0284 -0.00959775 0)
(10.0328 -0.0100206 0)
(10.037 -0.0104167 0)
(10.0412 -0.0108049 0)
(10.0452 -0.0111982 0)
(10.049 -0.0116052 0)
(10.0526 -0.012032 0)
(10.0561 -0.0124824 0)
(10.0594 -0.0129569 0)
(10.0626 -0.01346 0)
(10.0002 -0.00166928 0)
(10.0015 -0.00495773 0)
(10.0041 -0.00783436 0)
(10.0078 -0.0101305 0)
(10.0121 -0.0118741 0)
(10.0166 -0.0132169 0)
(10.0212 -0.0142658 0)
(10.0258 -0.0150795 0)
(10.0304 -0.0157162 0)
(10.0348 -0.0162351 0)
(10.0391 -0.0166833 0)
(10.0432 -0.0170913 0)
(10.0472 -0.0174793 0)
(10.051 -0.0178607 0)
(10.0546 -0.0182453 0)
(10.058 -0.0186399 0)
(10.0613 -0.0190473 0)
(10.0643 -0.019473 0)
(10.0002 -0.00233787 0)
(10.0017 -0.00700087 0)
(10.0047 -0.0111039 0)
(10.009 -0.0142299 0)
(10.0138 -0.016484 0)
(10.0187 -0.0181782 0)
(10.0235 -0.0194738 0)
(10.0284 -0.0204439 0)
(10.0332 -0.0211697 0)
(10.0377 -0.0217326 0)
(10.0421 -0.0221906 0)
(10.0463 -0.0225829 0)
(10.0502 -0.022936 0)
(10.054 -0.0232694 0)
(10.0576 -0.0235961 0)
(10.061 -0.0239252 0)
(10.0642 -0.0242602 0)
(10.0672 -0.0246068 0)
(10.0002 -0.00296331 0)
(10.0018 -0.00906754 0)
(10.0054 -0.014392 0)
(10.0106 -0.0182474 0)
(10.016 -0.0209592 0)
(10.0213 -0.0229511 0)
(10.0265 -0.0243797 0)
(10.0316 -0.0253723 0)
(10.0366 -0.0260838 0)
(10.0413 -0.0266242 0)
(10.0457 -0.0270509 0)
(10.0499 -0.0274002 0)
(10.0539 -0.0277018 0)
(10.0577 -0.027978 0)
(10.0613 -0.0282438 0)
(10.0647 -0.0285086 0)
(10.0679 -0.0287763 0)
(10.0709 -0.0290515 0)
(10.0001 -0.00351459 0)
(10.0018 -0.0115278 0)
(10.0063 -0.0178406 0)
(10.0123 -0.0219123 0)
(10.0184 -0.0249546 0)
(10.0242 -0.0273419 0)
(10.0298 -0.0289607 0)
(10.0353 -0.0299545 0)
(10.0404 -0.030595 0)
(10.0452 -0.0310486 0)
(10.0498 -0.0313843 0)
(10.0541 -0.0316418 0)
(10.0581 -0.0318547 0)
(10.0619 -0.0320469 0)
(10.0655 -0.0322336 0)
(10.0688 -0.0324219 0)
(10.072 -0.0326151 0)
(10.0749 -0.0328139 0)
(9.99992 -0.00336778 0)
(10.0016 -0.0149499 0)
(10.0073 -0.0226903 0)
(10.0143 -0.0261829 0)
(10.0207 -0.0287499 0)
(10.027 -0.0310977 0)
(10.0332 -0.0328061 0)
(10.0392 -0.0338838 0)
(10.0447 -0.0345751 0)
(10.0497 -0.0350346 0)
(10.0544 -0.035334 0)
(10.0588 -0.0355273 0)
(10.0628 -0.0356605 0)
(10.0665 -0.0357651 0)
(10.07 -0.0358597 0)
(10.0732 -0.0359542 0)
(10.0761 -0.0360523 0)
(10.0788 -0.0361569 0)
(9.9986 -0.000388691 0)
(9.99909 -0.0157428 0)
(10.0076 -0.0274025 0)
(10.0167 -0.0324503 0)
(10.0238 -0.034812 0)
(10.0307 -0.0361527 0)
(10.0378 -0.0368933 0)
(10.0443 -0.0373529 0)
(10.0501 -0.0376968 0)
(10.0553 -0.0379419 0)
(10.0599 -0.0380883 0)
(10.064 -0.0381608 0)
(10.0676 -0.0381905 0)
(10.0708 -0.0381999 0)
(10.0736 -0.0382037 0)
(10.076 -0.0382104 0)
(10.0782 -0.038222 0)
(10.08 -0.0382407 0)
(9.99488 0.0013419 0)
(9.99288 -0.00808324 0)
(10.0061 -0.020333 0)
(10.0202 -0.0322469 0)
(10.0307 -0.0404393 0)
(10.0393 -0.0441011 0)
(10.0469 -0.0450038 0)
(10.0531 -0.0448522 0)
(10.058 -0.0443813 0)
(10.0619 -0.0437847 0)
(10.0649 -0.0431413 0)
(10.0671 -0.0425076 0)
(10.0686 -0.0419193 0)
(10.0695 -0.0413855 0)
(10.0698 -0.0409157 0)
(10.0697 -0.0405067 0)
(10.0692 -0.040155 0)
(10.0685 -0.0398354 0)
(9.99473 -0.0305575 0)
(9.99926 -0.0228649 0)
(10.0147 -0.00262356 0)
(10.0304 -0.00188807 0)
(10.0435 -0.0116291 0)
(10.0534 -0.0208872 0)
(10.0595 -0.0272387 0)
(10.062 -0.031461 0)
(10.0617 -0.034232 0)
(10.0593 -0.0359269 0)
(10.0553 -0.0368591 0)
(10.05 -0.0372952 0)
(10.0438 -0.0374252 0)
(10.0368 -0.0373685 0)
(10.0293 -0.0372164 0)
(10.0213 -0.0370249 0)
(10.0132 -0.036858 0)
(10.005 -0.0366843 0)
(10.0273 -0.182756 0)
(10.0763 -0.288311 0)
(10.0872 -0.247747 0)
(10.0777 -0.186508 0)
(10.0664 -0.140278 0)
(10.0538 -0.108198 0)
(10.0366 -0.085855 0)
(10.0146 -0.0703922 0)
(9.98952 -0.0596206 0)
(9.96251 -0.0518444 0)
(9.93458 -0.0460222 0)
(9.9063 -0.0415284 0)
(9.87816 -0.0379778 0)
(9.85049 -0.035108 0)
(9.82352 -0.0327484 0)
(9.79737 -0.0308359 0)
(9.77229 -0.0293282 0)
(9.74829 -0.0285202 0)
(9.93575 0.689321 0)
(9.86861 0.609607 0)
(9.76456 0.380631 0)
(9.6267 0.217452 0)
(9.486 0.119281 0)
(9.35737 0.0632038 0)
(9.24291 0.0315938 0)
(9.14143 0.0136347 0)
(9.05182 0.00328272 0)
(8.97291 -0.00277713 0)
(8.90308 -0.00633258 0)
(8.84096 -0.00845462 0)
(8.78532 -0.00970926 0)
(8.73525 -0.0104612 0)
(8.68985 -0.0109664 0)
(8.64852 -0.0112388 0)
(8.61033 -0.0114499 0)
(8.57496 -0.0121128 0)
(0.0111594 -0.0167199 -5.88461e-19)
(0.03221 -0.025608 2.83034e-19)
(0.0484236 -0.0234625 0)
(0.0637011 -0.0171929 0)
(0.0736389 -0.0089447 0)
(0.0773448 -0.000225176 -1.11634e-19)
(0.07535 0.00787955 0)
(0.0683247 0.0146425 0)
(0.0569769 0.0197838 0)
(0.042139 0.0234032 0)
(0.0252763 0.0262439 8.84402e-20)
(0.00938812 0.0294719 0)
(-0.0115716 0.0259107 0)
(-0.0417651 0.0142144 0)
(-0.0576504 0.0089996 0)
(-0.0783148 0.00779865 2.32133e-19)
(-0.101251 0.00840274 0)
(-0.12877 0.0116698 0)
(-0.162929 0.0201469 0)
(-0.202731 0.0356948 0)
(-0.246636 0.04889 0)
(-0.297208 0.0491284 0)
(-0.347934 0.0489185 0)
(-0.398565 0.0559842 1.09807e-19)
(-0.45579 0.0584923 -1.01488e-19)
(-0.514161 0.0600405 9.39471e-20)
(-0.57423 0.0613599 8.72111e-20)
(-0.635656 0.0623887 0)
(-0.698048 0.0630044 0)
(-0.760947 0.0631607 -7.14865e-20)
(-0.823901 0.0628523 -6.74683e-20)
(-0.886473 0.0621226 0)
(-0.948284 0.0610088 0)
(-1.00901 0.059577 -5.80808e-20)
(-1.06839 0.0578796 0)
(-1.12621 0.0559896 0)
(-1.18233 0.0539559 5.15427e-20)
(-1.23665 0.0518432 0)
(-1.28912 0.0496866 4.82459e-20)
(-1.33973 0.0475364 9.36657e-20)
(-1.38849 0.0454114 0)
(-1.43546 0.0433475 0)
(-1.48069 0.04135 0)
(-1.52425 0.0394432 0)
(-1.56622 0.037621 0)
(-1.6067 0.0358994 8.10205e-20)
(-1.64576 0.0342649 7.94004e-20)
(-1.68349 0.0327284 7.78731e-20)
(-1.71996 0.0312736 0)
(-1.75526 0.0299093 -7.5046e-20)
(-1.78945 0.0286149 0)
(-1.82262 0.0273999 7.2457e-20)
(-1.85482 0.0262459 7.12318e-20)
(-1.88611 0.0251614 0)
(-1.91657 0.0241275 0)
(-1.94625 0.0231556 0)
(-1.97518 0.0222298 6.66513e-20)
(-2.00343 0.0213618 0)
(-2.03103 0.0205343 0)
(-2.05804 0.0197615 0)
(-2.08449 0.0190295 0)
(-2.11044 0.0183524 0)
(-2.13591 0.017717 0)
(-2.16096 0.0171376 0)
(-2.18563 0.0166019 0)
(-2.20997 0.0161243 -5.71932e-20)
(-2.23401 0.0156942 0)
(-2.2578 0.0153247 0)
(-2.28139 0.0150062 5.40953e-20)
(-2.30483 0.0147492 5.30609e-20)
(-2.32817 0.0145459 0)
(-2.35146 0.0144044 -5.09919e-20)
(-2.37475 0.014318 4.99579e-20)
(-2.39811 0.0142919 0)
(-2.42159 0.0143214 -4.78918e-20)
(-2.44524 0.0144106 0)
(-2.46911 0.0145614 0)
(-2.49326 0.0147773 4.48133e-20)
(-2.51771 0.0150555 0)
(-2.54253 0.0153937 -4.27895e-20)
(-2.56774 0.0157942 0)
(-2.59338 0.0162507 4.08044e-20)
(-2.61946 0.0167587 3.98317e-20)
(-2.64602 0.0173025 3.88749e-20)
(-2.67305 0.0178842 7.58747e-20)
(-2.70057 0.0184868 -7.40438e-20)
(-2.72852 0.0191133 0)
(-2.75685 0.0197314 0)
(-2.78548 0.0203377 0)
(-2.81436 0.0208843 -6.72548e-20)
(-2.84357 0.0213272 -6.57035e-20)
(-2.87304 0.0216507 6.42137e-20)
(-2.90265 0.0218398 0)
(-2.93222 0.0218849 -6.14164e-20)
(-2.96161 0.0217584 -6.011e-20)
(-2.99062 0.0214044 -5.88688e-20)
(-3.01904 0.0206672 0)
(-3.04647 0.0189361 0)
(-3.07241 0.0176201 0)
(-3.09708 0.0183909 -5.45183e-20)
(-3.1205 0.0172608 0)
(-3.14181 0.0157139 0)
(-3.16087 0.0148394 5.21426e-20)
(-3.1771 0.0132882 0)
(-3.1902 0.0116373 0)
(-3.19938 0.00882744 5.0288e-20)
(-3.20413 0.00717375 0)
(-3.20548 0.00618441 0)
(-3.20326 0.00510413 -4.83513e-20)
(-3.19724 0.00369171 -4.76956e-20)
(-3.18688 0.000992934 0)
(-3.17183 -0.000879314 4.61167e-20)
(-3.15251 -0.00189012 0)
(-3.12847 -0.00456684 -4.43381e-20)
(-3.09909 -0.00765002 0)
(-3.06443 -0.0102978 -4.1824e-20)
(-3.02428 -0.013 -4.02257e-20)
(-2.97867 -0.0153064 0)
(-2.92747 -0.0183903 0)
(-2.87043 -0.0216898 0)
(-2.80784 -0.0247185 0)
(-2.73952 -0.0282741 0)
(-2.66553 -0.0318008 0)
(-2.58587 -0.0354398 0)
(-2.50057 -0.0391188 -1.36315e-20)
(-2.40981 -0.0428384 7.65481e-21)
(-2.31378 -0.0465426 0)
(-2.21275 -0.0502199 0)
(-2.10701 -0.0538125 0)
(-1.99689 -0.0573067 0)
(-1.88276 -0.0606553 -7.2491e-20)
(-1.76502 -0.0638428 0)
(-1.6441 -0.0668383 1.24221e-19)
(-1.52042 -0.0696305 -1.54602e-19)
(-1.39445 -0.0722054 0)
(-1.26664 -0.0745773 0)
(-1.13741 -0.0767587 0)
(-1.00721 -0.0787581 3.15063e-19)
(-0.876446 -0.0805965 3.67717e-19)
(-0.7455 -0.0822955 0)
(-0.614744 -0.0838729 4.94184e-19)
(-0.484593 -0.0852887 5.70993e-19)
(-0.355194 -0.0865413 -6.59442e-19)
(-0.227199 -0.0878502 0)
(-0.099338 -0.0881546 0)
(0.0311957 -0.0859709 -8.29534e-19)
(0.161046 -0.0821203 0)
(0.287758 -0.0779075 0)
(0.411019 -0.0737389 0)
(0.530369 -0.0697024 0)
(0.645605 -0.0658315 6.90598e-19)
(0.75661 -0.0621142 6.7341e-19)
(0.863352 -0.0585608 0)
(0.965843 -0.0552064 6.44505e-19)
(1.06413 -0.0520239 0)
(1.15827 -0.0489667 0)
(1.24838 -0.0460769 6.10772e-19)
(1.3346 -0.0433668 0)
(1.41701 -0.0408077 5.92488e-19)
(1.49573 -0.0383854 0)
(1.57089 -0.0360933 0)
(1.64261 -0.0339284 5.6983e-19)
(1.71104 -0.0318885 0)
(1.7763 -0.0299627 5.57116e-19)
(1.8385 -0.0281431 0)
(1.89776 -0.0264216 0)
(1.95417 -0.0247949 0)
(2.00783 -0.0232463 -5.3621e-19)
(2.05883 -0.0217734 0)
(2.10721 -0.0203667 5.27717e-19)
(2.153 -0.0190022 0)
(2.19616 -0.0176537 0)
(2.23655 -0.0162936 0)
(2.27389 -0.0148521 0)
(2.30772 -0.0132456 0)
(2.3366 -0.0112596 0)
(2.35986 -0.00825946 0)
(2.36699 -0.00227428 -1.03376e-18)
(2.36038 0.01101 0)
(2.24738 0.0298063 0)
(0.0111892 -0.065147 1.30997e-18)
(0.0280125 -0.0645889 -5.23346e-19)
(0.0341923 -0.048324 0)
(0.037969 -0.0320879 1.51742e-19)
(0.037872 -0.0159776 0)
(0.0339937 -0.00047435 5.74812e-20)
(0.0267646 0.0138568 -1.06736e-19)
(0.0162503 0.0266018 -1.02255e-19)
(0.00236742 0.0376287 0)
(-0.0148286 0.0471931 -1.01369e-19)
(-0.0351398 0.0558926 -5.30428e-20)
(-0.0581192 0.0644379 0)
(-0.0877811 0.071963 0)
(-0.122986 0.0752758 0)
(-0.16176 0.0786801 0)
(-0.203314 0.0834658 -6.70571e-20)
(-0.248303 0.0900699 0)
(-0.296918 0.0987548 1.2121e-19)
(-0.348381 0.109508 0)
(-0.40087 0.121712 0)
(-0.454307 0.133373 -9.30521e-20)
(-0.510004 0.141844 0)
(-0.567832 0.147217 7.87093e-20)
(-0.627362 0.152113 -3.7426e-20)
(-0.688264 0.156399 3.57308e-20)
(-0.749372 0.159318 -3.41777e-20)
(-0.810308 0.160989 -3.27329e-20)
(-0.870662 0.161451 0)
(-0.930083 0.160732 0)
(-0.988294 0.158921 2.9012e-20)
(-1.04508 0.156137 -2.77215e-20)
(-1.10028 0.152539 0)
(-1.15378 0.148279 0)
(-1.20552 0.14352 2.53232e-20)
(-1.25547 0.138405 0)
(-1.30363 0.133079 0)
(-1.35003 0.127654 -2.3284e-20)
(-1.39471 0.12224 0)
(-1.43774 0.116907 2.19797e-20)
(-1.47919 0.111727 -4.33735e-20)
(-1.51913 0.106734 0)
(-1.55764 0.101968 0)
(-1.5948 0.0974379 -8.12696e-20)
(-1.6307 0.0931608 -7.97849e-20)
(-1.66541 0.0891291 -7.83846e-20)
(-1.699 0.0853476 3.83687e-20)
(-1.73154 0.0817984 -3.80521e-20)
(-1.76311 0.0784804 -1.12032e-19)
(-1.79376 0.0753718 7.3432e-20)
(-1.82355 0.0724695 3.62949e-20)
(-1.85253 0.0697494 0)
(-1.88076 0.0672081 -3.52192e-20)
(-1.90829 0.0648231 3.44654e-20)
(-1.93517 0.062593 0)
(-1.96144 0.060497 0)
(-1.98713 0.0585366 0)
(-2.0123 0.0566938 -3.27265e-20)
(-2.03698 0.0549733 0)
(-2.06121 0.0533585 6.33773e-20)
(-2.08502 0.0518557 0)
(-2.10844 0.0504504 6.15095e-20)
(-2.13153 0.049151 0)
(-2.1543 0.047945 -5.96462e-20)
(-2.1768 0.0468418 0)
(-2.19907 0.0458299 5.77768e-20)
(-2.22114 0.0449187 -2.83673e-20)
(-2.24305 0.0440984 0)
(-2.26484 0.0433781 -5.49457e-20)
(-2.28655 0.042749 -2.70407e-20)
(-2.30821 0.0422185 -2.65617e-20)
(-2.32987 0.041779 0)
(-2.35157 0.0414352 -2.55175e-20)
(-2.37334 0.0411799 -2.51225e-20)
(-2.39523 0.041013 0)
(-2.41727 0.0409254 2.41645e-20)
(-2.43949 0.0409138 -4.72761e-20)
(-2.46194 0.0409733 0)
(-2.48462 0.0410994 -2.27389e-20)
(-2.50756 0.041283 0)
(-2.53079 0.0415113 6.52777e-20)
(-2.5543 0.0417784 0)
(-2.57809 0.0420709 -6.25027e-20)
(-2.60216 0.0423793 -2.04362e-20)
(-2.62649 0.0426781 1.98128e-20)
(-2.65107 0.0429616 3.87286e-20)
(-2.67585 0.0432076 -3.78496e-20)
(-2.70079 0.04342 0)
(-2.72578 0.0435771 0)
(-2.75072 0.0436798 0)
(-2.7755 0.0436861 1.04915e-19)
(-2.80006 0.0435385 3.44611e-20)
(-2.82434 0.0431984 -3.37828e-20)
(-2.84818 0.0426405 0)
(-2.87142 0.0418529 -3.18121e-20)
(-2.89386 0.0408052 3.19122e-20)
(-2.9153 0.0394753 3.13413e-20)
(-2.93556 0.0378273 0)
(-2.95456 0.0358438 0)
(-2.97223 0.0334827 0)
(-2.98811 0.0307703 2.93781e-20)
(-3.00206 0.0277617 0)
(-3.01403 0.0243551 -5.67678e-20)
(-3.02378 0.0205224 -8.46169e-20)
(-3.03126 0.0163328 5.56504e-20)
(-3.03636 0.0118459 0)
(-3.03915 0.00717627 2.70167e-20)
(-3.03967 0.00242977 0)
(-3.03678 -0.00237681 5.35248e-20)
(-3.03015 -0.00735571 -2.61885e-20)
(-3.01946 -0.0125919 -2.59124e-20)
(-3.00461 -0.0179689 0)
(-2.98554 -0.0236041 -7.66233e-20)
(-2.96161 -0.0295019 5.01893e-20)
(-2.93252 -0.035441 2.48832e-20)
(-2.89853 -0.0414939 0)
(-2.85928 -0.0477717 2.36647e-20)
(-2.81456 -0.0540822 6.8539e-20)
(-2.76417 -0.0604431 0)
(-2.70796 -0.0667579 4.19484e-20)
(-2.64611 -0.0730828 3.95823e-20)
(-2.57839 -0.0793816 3.68836e-20)
(-2.50482 -0.0855978 0)
(-2.42547 -0.0917066 0)
(-2.34031 -0.0976393 0)
(-2.24939 -0.103292 -1.1142e-20)
(-2.15289 -0.108673 -7.41744e-21)
(-2.05101 -0.113722 0)
(-1.94401 -0.118431 -3.56111e-21)
(-1.83222 -0.122744 3.67775e-21)
(-1.71597 -0.126648 0)
(-1.59566 -0.130095 2.24715e-20)
(-1.47171 -0.133079 5.93248e-20)
(-1.34457 -0.135573 -4.23479e-20)
(-1.21472 -0.13758 -4.7904e-20)
(-1.08262 -0.139102 0)
(-0.948767 -0.140163 0)
(-0.813628 -0.140786 0)
(-0.67767 -0.141011 -1.04628e-19)
(-0.541339 -0.140879 1.12314e-19)
(-0.405034 -0.140425 2.61739e-19)
(-0.26913 -0.139711 -1.50323e-19)
(-0.133722 -0.138862 1.58138e-19)
(0.00151101 -0.138022 1.76404e-19)
(0.135721 -0.137358 0)
(0.267075 -0.136063 0)
(0.394506 -0.133054 -1.91465e-19)
(0.517992 -0.12863 0)
(0.638098 -0.12358 0)
(0.754951 -0.118283 4.27949e-19)
(0.868383 -0.112919 0)
(0.97825 -0.10758 2.2247e-19)
(1.08445 -0.102326 -2.32302e-19)
(1.18693 -0.0971924 0)
(1.28567 -0.0922163 2.36556e-19)
(1.38068 -0.0874152 0)
(1.47199 -0.0827907 0)
(1.55969 -0.0783618 -2.51148e-19)
(1.64382 -0.0741403 5.04488e-19)
(1.72444 -0.0701031 -2.56515e-19)
(1.80167 -0.0662498 0)
(1.87561 -0.0625822 0)
(1.94638 -0.0591064 2.60382e-19)
(2.01409 -0.0558125 0)
(2.07882 -0.0526809 2.64135e-19)
(2.1407 -0.049701 0)
(2.19981 -0.0468671 0)
(2.25625 -0.0441699 0)
(2.3101 -0.0415932 2.71763e-19)
(2.36144 -0.0391236 0)
(2.41031 -0.0367358 -2.73894e-19)
(2.45672 -0.0343887 0)
(2.50064 -0.0320291 0)
(2.54194 -0.0295749 5.52557e-19)
(2.58035 -0.0268976 -5.54833e-19)
(2.61546 -0.0237453 0)
(2.6463 -0.0197119 0)
(2.67192 -0.0135164 0)
(2.68892 -0.00279004 1.71774e-18)
(2.7059 0.019038 0)
(2.69429 0.0586876 -1.18862e-18)
(0.00347601 -0.0940018 -1.11769e-21)
(0.0102384 -0.0765996 5.31107e-19)
(0.00777707 -0.0496866 0)
(0.00320167 -0.0254517 -2.27161e-19)
(-0.00442791 -0.0027678 0)
(-0.0149254 0.0186496 0)
(-0.0281108 0.0387452 1.56871e-22)
(-0.0440545 0.0574695 7.10075e-20)
(-0.0629556 0.0748712 6.80245e-20)
(-0.0850102 0.0911747 6.67913e-20)
(-0.110346 0.106734 0)
(-0.139076 0.12171 0)
(-0.171758 0.135431 -6.75869e-20)
(-0.208452 0.147245 -1.34342e-19)
(-0.249023 0.158552 1.31421e-19)
(-0.293014 0.170295 0)
(-0.340039 0.182857 1.22955e-19)
(-0.389446 0.196129 -5.90302e-20)
(-0.440283 0.209672 0)
(-0.491464 0.222649 1.06697e-19)
(-0.54244 0.233892 5.04817e-20)
(-0.59372 0.242515 -9.58361e-20)
(-0.646088 0.248954 -4.58889e-20)
(-0.699333 0.253571 0)
(-0.752494 0.256462 8.47306e-20)
(-0.805185 0.257612 8.15902e-20)
(-0.857192 0.25707 0)
(-0.908299 0.254922 7.58074e-20)
(-0.958344 0.251302 0)
(-1.00723 0.246386 7.07384e-20)
(-1.05489 0.240376 3.43351e-20)
(-1.10129 0.233493 0)
(-1.14641 0.225951 0)
(-1.19024 0.217953 0)
(-1.23279 0.20968 0)
(-1.27409 0.201293 0)
(-1.31416 0.192927 0)
(-1.35302 0.184695 5.6708e-20)
(-1.3907 0.176682 -8.33107e-20)
(-1.42725 0.168953 0)
(-1.46269 0.16155 0)
(-1.49707 0.154503 0)
(-1.53043 0.147824 1.83313e-22)
(-1.5628 0.141518 5.05706e-20)
(-1.59424 0.135578 9.92579e-20)
(-1.62477 0.129998 -9.76355e-20)
(-1.65445 0.12476 -4.79612e-20)
(-1.68331 0.11985 4.73793e-20)
(-1.71139 0.115248 -1.52679e-22)
(-1.73873 0.110938 4.58212e-20)
(-1.76537 0.106898 0)
(-1.79136 0.103113 4.45055e-20)
(-1.81671 0.0995634 -1.29212e-22)
(-1.84148 0.0962357 0)
(-1.86569 0.0931139 0)
(-1.88939 0.090188 -4.20392e-20)
(-1.91259 0.0874453 0)
(-1.93533 0.0848792 0)
(-1.95765 0.08248 4.01734e-20)
(-1.97957 0.0802436 7.93705e-20)
(-2.00112 0.0781628 -3.91885e-20)
(-2.02235 0.0762361 0)
(-2.04326 0.0744586 3.80159e-20)
(-2.06391 0.07283 0)
(-2.08431 0.0713468 3.67017e-20)
(-2.10451 0.0700094 3.62501e-20)
(-2.12454 0.0688153 -7.11879e-20)
(-2.14442 0.0677649 -3.49392e-20)
(-2.16419 0.0668558 0)
(-2.18389 0.0660871 6.76183e-20)
(-2.20355 0.0654555 0)
(-2.2232 0.0649581 9.78891e-20)
(-2.24288 0.0645901 6.40134e-20)
(-2.26263 0.0643446 6.28079e-20)
(-2.28246 0.0642139 -6.16025e-20)
(-2.30242 0.0641884 9.06729e-20)
(-2.32252 0.0642603 0)
(-2.3428 0.0644165 0)
(-2.36326 0.0646434 -5.68125e-20)
(-2.38392 0.0649216 -8.35434e-20)
(-2.40479 0.0652364 0)
(-2.42587 0.0655649 2.67604e-20)
(-2.44715 0.0658873 0)
(-2.46863 0.0661738 -7.6677e-20)
(-2.49027 0.066405 -2.61774e-22)
(-2.51206 0.0665506 2.7903e-22)
(-2.53394 0.066593 4.77989e-20)
(-2.55584 0.0665042 0)
(-2.57766 0.066263 -4.57878e-20)
(-2.59931 0.0658231 -3.59027e-22)
(-2.62075 0.0651292 0)
(-2.64191 0.0641352 0)
(-2.66268 0.0628111 0)
(-2.68292 0.0611282 4.18549e-20)
(-2.70249 0.0590547 0)
(-2.72123 0.0565515 0)
(-2.73902 0.0535792 0)
(-2.75573 0.0501083 0)
(-2.77123 0.0462185 0)
(-2.7852 0.042016 3.76856e-20)
(-2.79746 0.0373276 0)
(-2.80796 0.0320969 3.72437e-20)
(-2.81645 0.0264153 3.68802e-20)
(-2.82278 0.0202907 -3.6526e-20)
(-2.82668 0.0137293 0)
(-2.82799 0.00674961 -3.58291e-20)
(-2.82635 -0.000579434 0)
(-2.82133 -0.00822541 -3.50902e-20)
(-2.81266 -0.0162482 3.46927e-20)
(-2.80005 -0.0246752 1.02293e-19)
(-2.78332 -0.0334916 0)
(-2.76228 -0.0426334 9.94857e-20)
(-2.73649 -0.0520713 3.24347e-20)
(-2.70572 -0.0617537 0)
(-2.67002 -0.0716534 6.26029e-20)
(-2.62905 -0.0817704 6.09396e-20)
(-2.58271 -0.0919801 -8.84267e-20)
(-2.53076 -0.102223 0)
(-2.4731 -0.112458 -2.68899e-20)
(-2.40971 -0.122647 -2.5304e-20)
(-2.34047 -0.132735 -7.10734e-20)
(-2.26545 -0.142658 0)
(-2.18465 -0.152336 0)
(-2.09807 -0.161673 0)
(-2.0058 -0.170559 -1.47173e-20)
(-1.908 -0.178936 0)
(-1.80489 -0.186733 0)
(-1.69675 -0.193896 2.19547e-21)
(-1.5839 -0.20036 -2.25439e-21)
(-1.4667 -0.206079 0)
(-1.34557 -0.211 0)
(-1.22095 -0.215096 -3.56804e-20)
(-1.09329 -0.21834 0)
(-0.963085 -0.22073 6.00533e-20)
(-0.830831 -0.222276 6.97065e-20)
(-0.697021 -0.223011 0)
(-0.562142 -0.222976 0)
(-0.426665 -0.222226 -1.12296e-19)
(-0.291031 -0.220833 -4.18518e-21)
(-0.155626 -0.218895 -4.31839e-21)
(-0.0206078 -0.216561 0)
(0.113441 -0.213809 -3.40067e-19)
(0.245664 -0.210437 0)
(0.375498 -0.206426 0)
(0.502381 -0.201858 0)
(0.625873 -0.19662 2.13612e-19)
(0.745913 -0.190612 0)
(0.862611 -0.184006 -4.57872e-19)
(0.97595 -0.177039 -2.41505e-19)
(1.08583 -0.169883 0)
(1.19216 -0.162654 -2.58232e-19)
(1.29487 -0.155438 0)
(1.39393 -0.1483 0)
(1.48934 -0.141297 -8.3547e-19)
(1.58111 -0.134469 5.6855e-19)
(1.66929 -0.127831 0)
(1.75394 -0.121408 5.92784e-19)
(1.83512 -0.115233 -3.03953e-19)
(1.91293 -0.109304 0)
(1.98749 -0.10362 0)
(2.0589 -0.098182 0)
(2.12726 -0.092995 -9.62658e-19)
(2.19267 -0.0880521 0)
(2.25524 -0.0833344 -3.2938e-19)
(2.31508 -0.0788293 0)
(2.37229 -0.0745293 0)
(2.42695 -0.0704196 0)
(2.47915 -0.0664819 0)
(2.52895 -0.0626947 0)
(2.57641 -0.0590154 0)
(2.62154 -0.0553872 -6.96271e-19)
(2.6643 -0.0517277 0)
(2.70459 -0.0479115 -3.53776e-19)
(2.74219 -0.0437446 1.06685e-18)
(2.77676 -0.0388836 0)
(2.80762 -0.0327302 0)
(2.83418 -0.0239906 -7.28983e-19)
(2.85406 -0.0104344 -7.40248e-19)
(2.87221 0.0135171 7.44488e-19)
(2.8775 0.0577922 7.69053e-19)
(-0.00605735 -0.0972625 -1.71946e-18)
(-0.00866048 -0.0668189 -6.4446e-19)
(-0.0182074 -0.0343214 -2.47637e-19)
(-0.0298314 -0.00493941 -9.02678e-20)
(-0.0436222 0.0225673 0)
(-0.0595023 0.0487149 1.29056e-19)
(-0.0774987 0.0736794 -5.85816e-20)
(-0.0977399 0.0975341 0)
(-0.120406 0.120351 -5.24242e-20)
(-0.145644 0.142238 0)
(-0.173536 0.163296 9.8303e-20)
(-0.204116 0.183501 0)
(-0.237463 0.202604 4.72708e-20)
(-0.273659 0.220411 9.24315e-20)
(-0.312665 0.237287 -9.00371e-20)
(-0.354186 0.253599 0)
(-0.397762 0.269476 -8.46515e-20)
(-0.442812 0.284755 0)
(-0.488712 0.299066 0)
(-0.534899 0.311907 -7.58942e-20)
(-0.581033 0.322718 0)
(-0.627059 0.331096 2.33775e-23)
(-0.673056 0.337073 0)
(-0.718924 0.34076 0)
(-0.764427 0.342206 -7.81855e-25)
(-0.809381 0.34151 -6.05607e-20)
(-0.853658 0.338823 -5.84683e-20)
(-0.897174 0.334342 -5.65397e-20)
(-0.939869 0.328301 0)
(-0.981702 0.320943 -1.06074e-19)
(-1.02265 0.31251 0)
(-1.0627 0.303242 -4.99852e-20)
(-1.10184 0.293361 0)
(-1.14007 0.283076 0)
(-1.17739 0.272572 4.61577e-20)
(-1.21379 0.26201 0)
(-1.24929 0.251526 -4.40202e-20)
(-1.28389 0.241231 -6.79831e-23)
(-1.31759 0.231211 8.43875e-20)
(-1.35041 0.221531 -8.26344e-20)
(-1.38236 0.212238 0)
(-1.41344 0.20336 0)
(-1.44369 0.194914 -3.90111e-20)
(-1.47311 0.186906 0)
(-1.50173 0.179332 -3.78434e-20)
(-1.52958 0.172184 3.72375e-20)
(-1.55668 0.165448 3.66572e-20)
(-1.58306 0.159106 0)
(-1.60874 0.153141 -3.55616e-20)
(-1.63375 0.147533 -3.50409e-20)
(-1.65812 0.14226 6.89663e-20)
(-1.68188 0.137303 -3.40421e-20)
(-1.70506 0.132644 -3.356e-20)
(-1.72769 0.128264 0)
(-1.74979 0.124147 0)
(-1.77139 0.120281 3.21622e-20)
(-1.79252 0.116651 0)
(-1.8132 0.113249 0)
(-1.83347 0.110064 -6.16166e-20)
(-1.85334 0.10709 -6.07232e-20)
(-1.87284 0.10432 0)
(-1.89201 0.101751 0)
(-1.91087 0.0993785 0)
(-1.92944 0.0972 0)
(-1.94776 0.0952135 -5.6256e-20)
(-1.96585 0.0934175 5.52929e-20)